# vtk DataFile Version 3.0
Unstructured Grid
ASCII
DATASET UNSTRUCTURED_GRID
POINTS      4550 double
   0.0000000000000000        0.0000000000000000        0.0000000000000000     
   0.0000000000000000        0.0000000000000000        3.1250000000000000E-002
   0.0000000000000000        0.0000000000000000        6.2500000000000000E-002
   0.0000000000000000        0.0000000000000000        9.3750000000000000E-002
   0.0000000000000000        0.0000000000000000       0.12500000000000000     
   0.0000000000000000        0.0000000000000000       0.15625000000000000     
   0.0000000000000000        0.0000000000000000       0.18750000000000000     
   0.0000000000000000        0.0000000000000000       0.21875000000000000     
   0.0000000000000000        0.0000000000000000       0.25000000000000000     
   0.0000000000000000        0.0000000000000000       0.28125000000000000     
   0.0000000000000000        0.0000000000000000       0.31250000000000000     
   0.0000000000000000        0.0000000000000000       0.34375000000000000     
   0.0000000000000000        0.0000000000000000       0.37500000000000000     
   0.0000000000000000        0.0000000000000000       0.40625000000000000     
   0.0000000000000000        0.0000000000000000       0.43750000000000000     
   0.0000000000000000        0.0000000000000000       0.46875000000000000     
   0.0000000000000000        0.0000000000000000       0.50000000000000000     
   0.0000000000000000        0.0000000000000000       0.53125000000000000     
   0.0000000000000000        0.0000000000000000       0.56250000000000000     
   0.0000000000000000        0.0000000000000000       0.59375000000000000     
   0.0000000000000000        0.0000000000000000       0.62500000000000000     
   0.0000000000000000        0.0000000000000000       0.65625000000000000     
   0.0000000000000000        0.0000000000000000       0.68750000000000000     
   0.0000000000000000        0.0000000000000000       0.71875000000000000     
   0.0000000000000000        0.0000000000000000       0.75000000000000000     
   0.0000000000000000        0.0000000000000000       0.78125000000000000     
   0.0000000000000000        0.0000000000000000       0.81250000000000000     
   0.0000000000000000        0.0000000000000000       0.84375000000000000     
   0.0000000000000000        0.0000000000000000       0.87500000000000000     
   0.0000000000000000        0.0000000000000000       0.90625000000000000     
   0.0000000000000000        0.0000000000000000       0.93750000000000000     
   0.0000000000000000        0.0000000000000000       0.96875000000000000     
   0.0000000000000000        0.0000000000000000        1.0000000000000000     
   0.0000000000000000        3.1250000000000000E-002   0.0000000000000000     
   0.0000000000000000        3.1250000000000000E-002   1.0000000000000000     
   0.0000000000000000        4.2405763908650258E-002  0.66130451259029932     
   0.0000000000000000        4.3217879046206449E-002  0.14760011926069846     
   0.0000000000000000        4.6024266659168159E-002  0.44206785664549769     
   0.0000000000000000        4.6024266659168159E-002  0.52668214335450225     
   0.0000000000000000        5.0942866059175335E-002  0.10420737699075047     
   0.0000000000000000        5.2217891062431979E-002   5.2217891062431979E-002
   0.0000000000000000        5.2761163692563604E-002  0.38171595438393841     
   0.0000000000000000        5.5068963296708517E-002  0.59134852187332609     
   0.0000000000000000        5.6120114733671470E-002  0.75604724093930309     
   0.0000000000000000        5.6324478455296215E-002  0.24577786591727294     
   0.0000000000000000        5.7363532779538949E-002  0.87371196899699510     
   0.0000000000000000        5.7470675736370332E-002  0.18930699270579771     
   0.0000000000000000        5.8263363642804059E-002  0.81429895566577748     
   0.0000000000000000        6.0887870516095753E-002  0.69980397551580908     
   0.0000000000000000        6.2500000000000000E-002   0.0000000000000000     
   0.0000000000000000        6.2500000000000000E-002   1.0000000000000000     
   0.0000000000000000        6.4711269014538775E-002  0.48437500000000000     
   0.0000000000000000        6.9225209415320288E-002  0.33114145848017668     
   0.0000000000000000        7.0413861272891454E-002  0.92958613872710860     
   0.0000000000000000        7.9770917049368548E-002  0.64062500000000000     
   0.0000000000000000        8.3926071099233085E-002  0.28526314383622647     
   0.0000000000000000        8.7633724434323254E-002  0.42187500000000000     
   0.0000000000000000        8.7633724434323254E-002  0.54687500000000000     
   0.0000000000000000        8.8068181818181823E-002  0.14062500000000000     
   0.0000000000000000        9.3750000000000000E-002   0.0000000000000000     
   0.0000000000000000        9.3750000000000000E-002   1.0000000000000000     
   0.0000000000000000       0.10119805731737391       0.89303091974927329     
   0.0000000000000000       0.10210219776924923        7.0764746741824577E-002
   0.0000000000000000       0.10635988421955403       0.21957230430375799     
   0.0000000000000000       0.10740857139383649       0.84564547603995810     
   0.0000000000000000       0.10786461042496739       0.46474837701534855     
   0.0000000000000000       0.10968401176898811       0.73824428233438488     
   0.0000000000000000       0.10969220020645358       0.95550186482507926     
   0.0000000000000000       0.11544264275928678       0.79209098776725284     
   0.0000000000000000       0.11808901360852578       0.59663401005457384     
   0.0000000000000000       0.12041430467853043       0.67800854775312602     
   0.0000000000000000       0.12335307882294175       0.17407035117359601     
   0.0000000000000000       0.12500000000000000        0.0000000000000000     
   0.0000000000000000       0.12500000000000000        1.0000000000000000     
   0.0000000000000000       0.13002446100559079       0.36656116971438985     
   0.0000000000000000       0.13068181818181818       0.29687500000000000     
   0.0000000000000000       0.13145794935938171       0.52792875194736344     
   0.0000000000000000       0.13152145848091723       0.25413323966508028     
   0.0000000000000000       0.14029998073959937       0.12855113636363635     
   0.0000000000000000       0.14062500000000000       0.92003956561172884     
   0.0000000000000000       0.14354289369273243        4.6375564186635417E-002
   0.0000000000000000       0.14789203175728108       0.42415466219925380     
   0.0000000000000000       0.15101795183539601       0.48437500000000000     
   0.0000000000000000       0.15625000000000000        0.0000000000000000     
   0.0000000000000000       0.15625000000000000        1.0000000000000000     
   0.0000000000000000       0.15812483216952217       0.81572518579617204     
   0.0000000000000000       0.16016925006360749       0.76155969044955663     
   0.0000000000000000       0.16105769230769232       0.64062500000000000     
   0.0000000000000000       0.16498033923188599       0.56192540447066308     
   0.0000000000000000       0.16681364204580570       0.86373403073390376     
   0.0000000000000000       0.16773736985982415       0.70646802951986931     
   0.0000000000000000       0.17187500000000000        8.5227272727272721E-002
   0.0000000000000000       0.17187500000000000       0.17187500000000000     
   0.0000000000000000       0.17230065023518384       0.24130278401345417     
   0.0000000000000000       0.17524993035964637       0.33214160114056268     
   0.0000000000000000       0.17536724190152050       0.95339263300749488     
   0.0000000000000000       0.18456495164560949       0.51836722168265548     
   0.0000000000000000       0.18672094257804892       0.28630188376875909     
   0.0000000000000000       0.18750000000000000        0.0000000000000000     
   0.0000000000000000       0.18750000000000000        1.0000000000000000     
   0.0000000000000000       0.19182611979586967        4.4839049992879139E-002
   0.0000000000000000       0.19736660067068895       0.38449523208871811     
   0.0000000000000000       0.19991704497100604       0.20641827567287876     
   0.0000000000000000       0.20249993440656938       0.12855113636363635     
   0.0000000000000000       0.20312500000000000       0.79687500000000000     
   0.0000000000000000       0.20592650903014437       0.91616923083075008     
   0.0000000000000000       0.20708080019865122       0.60347138662486799     
   0.0000000000000000       0.20881174380662740       0.45118373807264039     
   0.0000000000000000       0.21148737705495707       0.74054376865132920     
   0.0000000000000000       0.21407117136637366       0.65921232651476624     
   0.0000000000000000       0.21875000000000000        0.0000000000000000     
   0.0000000000000000       0.21875000000000000        1.0000000000000000     
   0.0000000000000000       0.22621916310275669       0.26036437453168837     
   0.0000000000000000       0.22693109923009044       0.84817608833212677     
   0.0000000000000000       0.22934361368355521       0.53497275561808477     
   0.0000000000000000       0.23291828960141181        6.3296820644412860E-002
   0.0000000000000000       0.23549788065273725       0.32831789642150322     
   0.0000000000000000       0.24440883944936315       0.20614550385605404     
   0.0000000000000000       0.25000000000000000        0.0000000000000000     
   0.0000000000000000       0.25000000000000000        1.0000000000000000     
   0.0000000000000000       0.25308036536593070       0.69963757175059260     
   0.0000000000000000       0.25433452960858166       0.94422008612362063     
   0.0000000000000000       0.25438783372307811       0.39434016470855998     
   0.0000000000000000       0.25455601108832415       0.63866292690521120     
   0.0000000000000000       0.25542104790070941       0.12478291206971995     
[...]
CELL_DATA     20981
SCALARS pressure double 1
LOOKUP_TABLE default
  0.77328867537351942     
  0.69956678651293092     
  0.16151121642226685     
  0.53940708299995865     
  0.25154381251717012     
   3.9158525669746147E-002
   3.7953043462586246E-002
  0.65440784072487856     
  0.67571364767781006     
   7.4459079104743198E-002
  0.34653314868667057     
  0.90115126237939658     
  0.15856764959291769     
  0.96923725783294568     
  0.13422422849538843     
  0.32440003228393460     
  0.84273538875370113     
  0.95704508290492929     
  0.96900288320201633     
  0.79900090855297823     
  0.94314910123817508     
  0.33549982539749179     
  0.35163203556778716     
   4.9327463225289761E-002
   2.9749053459593753E-002
  0.32071179667320254     
  0.30053333648607911     
  0.37207238863444675     
  0.41060137527098256     
  0.10845310371543447     
   4.0023202931001665E-002
  0.95090581849625744     
  0.34119028204621304     
  0.81159609008932210     
  0.69105683475839375     
  0.86743292860160293     
  0.36660754704885973     
  0.91778066384712453     
  0.95153601901128304     
  0.97449984869108131     
  0.43239624315777314     
  0.60638835783223810     
  0.85929189890197777     
  0.87653777611042971     
  0.24122370797857409     
  0.88366117529059129     
  0.94425286397759201     
  0.41931236218181001     
  0.96209154068174285     
  0.22345705060224544     
  0.68218611987784650     
  0.34131022160826796     
  0.21642314951395780     
  0.32356521825564100     
  0.87463707119768908     
  0.85237340954668372     
  0.70044095260972028     
  0.21479792924152882     
  0.75105578584395083     
  0.54953608345592997     
  0.26277213756597917     
  0.66598528761177256     
  0.23755476951657556     
  0.95128521003583721     
  0.42008692493822447     
  0.93063431377808348     
  0.19384700119824214     
  0.12924330368545844     
  0.80620135508986968     
   8.0660284015680345E-002
   4.9540369118856252E-002
   4.5367309755077939E-002
  0.15052735536626596     
  0.44872419842453293     
  0.95712467882127683     
  0.56832195749551984     
  0.39635094690912998     
  0.76413513631038854     
  0.48402659083960414     
  0.41676698495212572     
  0.65850426455094691     
  0.81115067502466776     
   5.0508794562807567E-002
  0.26808602511108115     
  0.17249454899272515     
  0.49677254461847803     
  0.52127526266652180     
  0.17916575098437043     
  0.48638868160237525     
  0.40619336063497119     
  0.42715070159109847     
  0.95297883748440060     
  0.44318790160968841     
  0.82537197567957110     
   3.8513187548138032E-002
  0.10369281548284490     
  0.85647828535683213     
  0.62070710818916708     
  0.33210091841890210     
  0.80608511225874924     
  0.52474007440157877     
  0.96776852141220304     
  0.54913308204087974     
  0.40578648050938460     
   9.0786062673095344E-002
  0.89137148141942024     
  0.97016995863876987     
  0.41731400989149381     
  0.97012077810079123     
  0.19045545693013052     
  0.37986752031866905     
  0.71335456684969345     
   1.5615927083786280E-002
  0.51536013679257586     
  0.29652373286301309     
  0.90634105358783024     
  0.15190248260612743     
  0.74709973083009529     
  0.96378669950174545     
  0.27835894881294215     
  0.64759783256971193     
  0.76595334017909489     
  0.26135698256203677     
  0.74860300562101112     
  0.20274528578299544     
  0.68138755267234707     
  0.70335787922774662     
  0.65179574647168781     
  0.28135742758177595     
  0.41082747689270416     
  0.31825650829360652     
  0.24229355260590199     
  0.41644758794611453     
  0.80182810230110368     
  0.96515356884810921     
  0.71337775402455073     
  0.23225939405344481     
   4.6733449422029380E-002
  0.31878374815537147     
  0.73529592342140715     
  0.57479549787815376     
  0.18951048159914605     
  0.96695918285142490     
  0.20220771963923800     
  0.14482740886650469     
  0.12993362284652019     
  0.33906517823427773     
  0.90276828569113565     
  0.52199967727225371     
  0.45335036849327237     
  0.15447398496746786     
  0.97097317280073614     
  0.96546735447602072     
  0.26922099000965655     
  0.95193014032305012     
  0.76721923809998716     
  0.90819052993651583     
  0.25272426375494644     
  0.29710335563915224     
  0.88905666565948394     
  0.95144903611917808     
  0.12148034628927316     
  0.30570158124444252     
  0.53618999093196118     
  0.24753615889275199     
  0.98437128051967238     
  0.49174550441540121     
   4.8104274545728049E-002
  0.19936430868918473     
  0.96286799802563749     
  0.55954401555510624     
  0.42045820443217963     
  0.51950371866940781     
   3.5577077426626601E-002
  0.46226810930118228     
  0.46134403580531286     
  0.51188822580831306     
  0.93204459872701051     
   2.7917655686509866E-002
  0.35560224109378774     
  0.90622843793961272     
  0.87434377685726417     
  0.55368366227804888     
  0.77236573063288949     
  0.33589682301485302     
  0.85816761780649653     
  0.29565189937884129     
  0.58003274526059256     
  0.90144058457607990     
  0.52816433869352464     
  0.86445482529130024     
   5.8840902743480611E-002
   4.6424423833550957E-002
  0.37373823074199075     
  0.87860031421479723     
  0.27593046847998148     
  0.32997385647802346     
  0.40704784073066214     
  0.68790662371625344     
  0.72195421402358939     
  0.11006038894091832     
  0.67911742293221167     
  0.43016802425710787     
  0.83722527304606453     
  0.39031674232250296     
   4.3576153113343390E-002
   7.7753437472625780E-002
  0.23612382963145498     
  0.34849482609658405     
  0.35030721464493181     
   3.9110908883953799E-002
  0.74278582052353026     
  0.97304672511551615     
  0.61201039231801990     
  0.44941803403334324     
  0.23585149494769400     
  0.87005649201928992     
  0.58220641585429223     
  0.91399990217674054     
  0.16549531243297039     
  0.71912778247702935     
  0.26695177601362041     
  0.51185188045391494     
   1.5554838978606557E-002
  0.16252638701231667     
  0.66993708435923749     
   5.6778188259576964E-002
  0.42294074264998521     
   3.2428426821224474E-002
  0.94812356715170476     
  0.71569527874224470     
  0.51960575311935764     
  0.53732589952069476     
  0.62876727209948169     
  0.55680670005102850     
  0.10636238115066599     
  0.31257359348602509     
  0.63065567947074885     
  0.47641852159744164     
   9.1041577753987524E-002
  0.83394795907041741     
   3.2444054443078706E-002
  0.31478024860407777     
  0.80693168175058372     
  0.78713646178227037     
  0.42363079768062095     
  0.39279603651047684     
  0.44162282892734916     
   4.3049542239198421E-002
  0.33462358259375208     
  0.96367725748134381     
  0.90983836155340647     
   2.8551778282835720E-002
   3.1658899864326351E-002
  0.17171475127403613     
   2.6109842602786735E-002
  0.40813037053333812     
  0.33032718066866285     
  0.69757707299386751     
  0.33657712301034520     
  0.87059356509634589     
  0.20297968163782074     
  0.22461643541014178     
  0.25103868796176143     
   3.3465003035516999E-002
  0.10502301946963637     
  0.73527977371947617     
  0.15873931288250626     
  0.78587405647696229     
  0.95339994668882788     
  0.59259278164503282     
   2.5294507647595030E-002
  0.64431478565228439     
  0.76856624916502991     
  0.51227565255319596     
  0.78426840226961270     
  0.50564727839604284     
  0.71419888990296843     
  0.61289800456631494     
  0.33516656793873129     
  0.66100414803839502     
   3.2433800075650318E-002
   5.3741242642603042E-002
  0.29551440756604380     
  0.98106889243545248     
  0.94429092402758796     
  0.35089856418724508     
  0.36076072530425946     
   3.8495385841939629E-002
  0.68501803817552498     
  0.95451092575920682     
   2.5856448917332426E-002
  0.48417462984922466     
  0.93945918467129264     
  0.24265684348822880     
  0.42913843402964452     
  0.27682220801220003     
  0.33193294699012615     
  0.98436595536733928     
  0.64131821491413621     
  0.12497894512299099     
  0.16703977041980650     
  0.53053954295018169     
  0.93031606515757270     
  0.37954916887956708     
  0.40245572820650416     
  0.73714342445897429     
   5.3992111959334239E-002
  0.83419002479005022     
  0.97705374451791982     
  0.97805248847994408     
  0.14821780825836381     
   3.7459535088358122E-002
  0.48222137449322239     
  0.80522191983754188     
  0.46684396403586903     
  0.14010381062006641     
   1.5601749077195136E-002
  0.31222284260581934     
  0.22889719911129400     
  0.88968640294282719     
  0.88388277054366315     
   6.7562285274473388E-002
  0.42310532708817050     
   4.6384178786379876E-002
  0.64629894576534741     
  0.15208779021280375     
   5.0230355614067503E-002
  0.73963845731049660     
  0.77200244746053737     
  0.24513478183499185     
  0.60025941227796475     
  0.47815513491302231     
  0.97277722167426350     
  0.74754299183085027     
  0.68180446137998663     
   3.8141039621742250E-002
  0.20622957920515553     
  0.95568573982006999     
  0.43416423671957960     
  0.43421549709765322     
  0.35798806130323024     
  0.76867389168999656     
  0.53981647398980270     
  0.27639368044981588     
  0.11265779816805445     
  0.52891284943209027     
  0.44433761292940760     
  0.41049328699334320     
  0.67252830013181619     
  0.87916014530282893     
  0.88635692325956339     
  0.34635784384553958     
  0.25488420304830189     
  0.60068338346904615     
  0.19889642931235496     
  0.18947581192228252     
  0.98436802325583250     
  0.55132405046718103     
  0.60421114063843628     
  0.69027857305971541     
  0.22079079793369444     
  0.89409698218223066     
  0.27422753181394177     
  0.74099771400256920     
  0.56380355667326520     
  0.40216336627587240     
  0.77457667616642356     
  0.96974381036341550     
  0.66416460720876591     
  0.96983462645860397     
  0.36561017148825009     
  0.73225958310863193     
  0.54017205553892944     
  0.20855850279456323     
  0.88427219049275041     
  0.81006359283100571     
  0.71870148694885017     
  0.18119625005499473     
  0.70494195708342944     
  0.35991160145678153     
  0.83256054539155988     
  0.74010966581420601     
  0.86582905742871419     
  0.53703276260344324     
  0.23777206537694359     
  0.76796701651702204     
  0.73491123171021344     
  0.97301970405030558     
  0.95598486622347456     
  0.95153684426713714     
  0.17914852524460934     
  0.83019130183661971     
   5.5137078135412916E-002
  0.80671824763304634     
   4.5638480737170077E-002
  0.44786381234730915     
  0.76797793349551868     
  0.95194710661353266     
  0.37833377863726886     
  0.77351651217775808     
  0.98443754843691478     
  0.96053835154073641     
  0.61392312092379298     
   3.9835589796850868E-002
  0.12198908212996036     
  0.60122952474792857     
  0.78002971048866010     
  0.88808364661426642     
  0.71582439108362950     
  0.11864848762788729     
  0.31164165123274956     
  0.72630191422828771     
  0.28350177132543436     
  0.89474394681848668     
  0.72958752515195247     
   9.5565115618481078E-002
  0.40091291600006057     
   4.2549374235033473E-002
  0.71397098245957746     
  0.34712590792052400     
  0.39046303272612071     
  0.50466440336950924     
  0.12740119992288124     
  0.28925030132539087     
  0.38960561468833321     
  0.86358002334178363     
  0.53259335486083603     
   4.4161010215535847E-002
  0.94123092469553826     
   4.2307101207861318E-002
  0.15911783786893402     
  0.68898671399538902     
  0.16568063593040003     
  0.19550019426338150     
  0.90062944890103724     
   9.0605446628432104E-002
  0.50623350044314663     
  0.78834934300004145     
  0.86301295531599531     
   4.4769221314390040E-002
  0.56135912510456909     
  0.22000353170968079     
  0.31026460645631293     
  0.80780020478641723     
  0.12475220903971290     
  0.64289823537388457     
   4.3138629414996479E-002
  0.68089364891360393     
  0.75101845716485160     
  0.37022763692123961     
  0.18852640657987407     
  0.95168046945580964     
  0.41938963046221600     
  0.35932956207165867     
  0.90318636942257935     
  0.66425926053762341     
  0.87726346719940151     
   2.3549158901186116E-002
  0.75490166204663578     
  0.97444425511248944     
  0.16892924121801703     
  0.15549012866226591     
  0.59977769851482488     
  0.73222043602352893     
  0.45866504008392034     
  0.97093845627509812     
  0.23416929338051329     
  0.94805395292565275     
  0.32237482015168278     
  0.51949386920271901     
  0.70419718042153856     
   1.5609398169752726E-002
   4.1861205031518425E-002
  0.55978694303918497     
  0.95494387583758489     
  0.38081164406384910     
  0.39957278874191543     
  0.27402435843905570     
  0.63726799349424934     
  0.90458962566271295     
  0.61006498648782692     
  0.82475332902227405     
  0.42332403932393819     
   3.5180859129369170E-002
  0.22476070327829306     
  0.33018952766834314     
  0.64958620562768998     
  0.81865851833992265     
  0.62279529183524951     
  0.88748837941971825     
  0.41318050227951147     
  0.15523030399821180     
  0.61672534323888284     
   3.9192378364943069E-002
  0.87747180862121610     
  0.81817303688946275     
  0.14268961909742411     
  0.12768661509303159     
  0.60652157441275234     
  0.72702143704345779     
  0.72823424486845723     
  0.23644902990446884     
  0.95675072420809582     
  0.67357904391140999     
  0.87594913632293214     
  0.21358500564941513     
  0.18065974457408659     
  0.66694700611433833     
  0.56004963197474222     
  0.63333511083602445     
  0.69031103608704592     
  0.48537483155549749     
   2.2375338599629126E-002
  0.18865919674414475     
  0.93875504152137501     
   3.2842931906779720E-002
  0.96177747396445623     
  0.55271894007482381     
  0.32048151474810105     
  0.73073477778745644     
  0.12845726473835803     
  0.11736493411600510     
  0.51044642935645379     
  0.89302303565544494     
  0.94167244990079069     
  0.92750930747869620     
  0.19848739781356253     
   3.2468687884562204E-002
  0.96389652695342920     
  0.97385952887135163     
  0.74265133399336014     
   3.8985123310846706E-002
  0.45163671874143124     
  0.40559909819504192     
  0.52859569330067901     
  0.38062431653525547     
  0.56202718483160130     
  0.20473502602517665     
  0.46950740365356414     
  0.31519730352570452     
  0.90902281882235969     
  0.14934683853958075     
  0.81996139709152038     
   3.4898717005912974E-002
  0.66153533995626779     
  0.25019971969818078     
  0.69159851049425081     
  0.85410889592492734     
  0.77961729655446488     
  0.35570329322599864     
  0.88532798374764132     
   9.8127367049110514E-002
  0.31682707317787473     
  0.57295332239239671     
   2.5447217766829181E-002
  0.71462764280266544     
  0.38005990953012464     
  0.72077931826970532     
  0.79396619657532208     
  0.42728478742037723     
  0.51752281313792892     
  0.20110243211784412     
  0.22013930326497599     
   4.3567283011407706E-002
  0.34541689286576271     
  0.47924106892601220     
  0.93487441537741600     
  0.19166124707205576     
   2.5806718499456378E-002
   7.6286549872646617E-002
  0.76699321309727198     
  0.32008046687130687     
  0.24258129077272972     
  0.34145300973865439     
   8.9416995454315862E-002
  0.60714812741541679     
   2.2310675906804082E-002
  0.53926158326915563     
  0.47565738719292999     
   4.9977575393308826E-002
   2.5115689528382383E-002
  0.22181197514656481     
  0.67174228678098180     
  0.45353768087332386     
   3.0696542312663808E-002
  0.70711284748432579     
  0.90561970154890592     
  0.55969950132382140     
   3.1336922048197595E-002
   8.5126621300578145E-002
  0.42361940332486497     
  0.80314906490595739     
  0.65044681561096174     
   5.1698965692686186E-002
  0.83043977665979707     
  0.81906988016315141     
   4.8935539067563309E-002
   5.0098970773432332E-002
  0.22086579510041596     
  0.17245994964730096     
  0.29099154499860652     
  0.60861186888726049     
  0.67716289093439219     
  0.98049384671089135     
  0.78699265161459031     
  0.12642391251016691     
  0.57754679457355818     
  0.51192283411011730     
  0.12897457038080257     
  0.76567792027245474     
  0.10520598010042784     
  0.76349076498152768     
  0.45798709802420756     
  0.43417173700916650     
  0.46051335764903478     
  0.90976342260171583     
  0.90624985118576007     
  0.97838375828797830     
  0.96913576865672169     
  0.31696196031555229     
  0.87067017737316676     
  0.95222520164907776     
   9.5601868088474040E-002
  0.97040462596913346     
  0.80032229673382282     
  0.70836980203219624     
  0.45100505176302935     
   3.2026139465968925E-002
  0.66110512713137715     
  0.87826835426852823     
   3.6584107537637557E-002
  0.65743565081612065     
   5.1021942250929923E-002
   3.1430185343287315E-002
  0.57131511756674336     
  0.21368667582789141     
  0.88394703753350834     
  0.72718622986397718     
  0.43176835241587014     
  0.95237392327813708     
  0.22643767499903994     
  0.21616125673408082     
  0.29955018910022141     
  0.13340143471116633     
   3.9746572860840886E-002
  0.77309767482504865     
  0.46234618243365200     
  0.66352356444012373     
  0.14126513842541702     
  0.55478624190002435     
  0.13500181495910291     
  0.98121377359695960     
  0.95909855551607959     
  0.41946278899323586     
  0.95754318769428892     
  0.21963842329591363     
   6.2031420899819105E-002
  0.64499974416726880     
  0.75268268584351405     
  0.95608481740625983     
  0.43867712566869083     
  0.90009751435195928     
  0.57152377156222012     
  0.87342946213768546     
  0.97196554157086312     
  0.93538520815357729     
  0.46598652424317155     
  0.33512428038579017     
  0.45112087358289027     
  0.41061464329026637     
  0.47303751287265472     
  0.54871544375706527     
  0.29673291496931553     
  0.62652455236660454     
  0.96457894135724409     
  0.23803482708041343     
  0.85395844313951463     
  0.55606892056773549     
  0.26688820973558364     
  0.60847009876542713     
  0.96734398738726490     
  0.49841984689280683     
  0.96043162015767358     
  0.29868280752338461     
  0.86671417510917126     
  0.35554062677762338     
  0.68528048847206591     
  0.40873317506535989     
  0.46910052783924538     
  0.28193642884963582     
   4.3424094963176223E-002
  0.53788837640418907     
  0.96641160625403000     
   3.5668657226821512E-002
  0.79546194247304836     
   3.5559231140861229E-002
   3.0101931286166065E-002
  0.20453321797833959     
  0.55476215254605321     
  0.54255295198190656     
   3.8351756282877979E-002
   9.2737134801100893E-002
  0.16652566460689483     
  0.75037691203912393     
  0.44439217752879373     
  0.21091493124381094     
  0.30537027330183725     
  0.11702427463372182     
  0.76031322378604593     
   5.3853148476912679E-002
  0.19077874300985184     
  0.67183201828455019     
  0.27090851400368116     
  0.40483049778614183     
  0.48478989937189371     
  0.68206250633359888     
  0.22789484782860742     
  0.33365623137034678     
  0.14757084111515947     
  0.83616102600105047     
  0.61927251360389801     
  0.58591026468936669     
   4.5072774474923971E-002
  0.96202892269010509     
  0.81430285592134188     
  0.74475069294141827     
  0.94984260222570371     
  0.23409787838936880     
  0.62075724632263529     
   2.7152556135693381E-002
  0.83591853327484333     
  0.39671491864535396     
  0.29382666928423595     
  0.61999691335231821     
  0.94786002202636666     
  0.93042961462166118     
  0.55742117163799865     