# vtk DataFile Version 3.0
Unstructured Grid
ASCII
DATASET UNSTRUCTURED_GRID
POINTS      4550 double
   0.0000000000000000        0.0000000000000000        0.0000000000000000     
   0.0000000000000000        0.0000000000000000        3.1250000000000000E-002
   0.0000000000000000        0.0000000000000000        6.2500000000000000E-002
   0.0000000000000000        0.0000000000000000        9.3750000000000000E-002
   0.0000000000000000        0.0000000000000000       0.12500000000000000     
   0.0000000000000000        0.0000000000000000       0.15625000000000000     
   0.0000000000000000        0.0000000000000000       0.18750000000000000     
   0.0000000000000000        0.0000000000000000       0.21875000000000000     
   0.0000000000000000        0.0000000000000000       0.25000000000000000     
   0.0000000000000000        0.0000000000000000       0.28125000000000000     
   0.0000000000000000        0.0000000000000000       0.31250000000000000     
   0.0000000000000000        0.0000000000000000       0.34375000000000000     
   0.0000000000000000        0.0000000000000000       0.37500000000000000     
   0.0000000000000000        0.0000000000000000       0.40625000000000000     
   0.0000000000000000        0.0000000000000000       0.43750000000000000     
   0.0000000000000000        0.0000000000000000       0.46875000000000000     
   0.0000000000000000        0.0000000000000000       0.50000000000000000     
   0.0000000000000000        0.0000000000000000       0.53125000000000000     
   0.0000000000000000        0.0000000000000000       0.56250000000000000     
   0.0000000000000000        0.0000000000000000       0.59375000000000000     
   0.0000000000000000        0.0000000000000000       0.62500000000000000     
   0.0000000000000000        0.0000000000000000       0.65625000000000000     
   0.0000000000000000        0.0000000000000000       0.68750000000000000     
   0.0000000000000000        0.0000000000000000       0.71875000000000000     
   0.0000000000000000        0.0000000000000000       0.75000000000000000     
   0.0000000000000000        0.0000000000000000       0.78125000000000000     
   0.0000000000000000        0.0000000000000000       0.81250000000000000     
   0.0000000000000000        0.0000000000000000       0.84375000000000000     
   0.0000000000000000        0.0000000000000000       0.87500000000000000     
   0.0000000000000000        0.0000000000000000       0.90625000000000000     
   0.0000000000000000        0.0000000000000000       0.93750000000000000     
   0.0000000000000000        0.0000000000000000       0.96875000000000000     
   0.0000000000000000        0.0000000000000000        1.0000000000000000     
   0.0000000000000000        3.1250000000000000E-002   0.0000000000000000     
   0.0000000000000000        3.1250000000000000E-002   1.0000000000000000     
   0.0000000000000000        4.2405763908650258E-002  0.66130451259029932     
   0.0000000000000000        4.3217879046206449E-002  0.14760011926069846     
   0.0000000000000000        4.6024266659168159E-002  0.44206785664549769     
   0.0000000000000000        4.6024266659168159E-002  0.52668214335450225     
   0.0000000000000000        5.0942866059175335E-002  0.10420737699075047     
   0.0000000000000000        5.2217891062431979E-002   5.2217891062431979E-002
   0.0000000000000000        5.2761163692563604E-002  0.38171595438393841     
   0.0000000000000000        5.5068963296708517E-002  0.59134852187332609     
   0.0000000000000000        5.6120114733671470E-002  0.75604724093930309     
   0.0000000000000000        5.6324478455296215E-002  0.24577786591727294     
   0.0000000000000000        5.7363532779538949E-002  0.87371196899699510     
   0.0000000000000000        5.7470675736370332E-002  0.18930699270579771     
   0.0000000000000000        5.8263363642804059E-002  0.81429895566577748     
   0.0000000000000000        6.0887870516095753E-002  0.69980397551580908     
   0.0000000000000000        6.2500000000000000E-002   0.0000000000000000     
   0.0000000000000000        6.2500000000000000E-002   1.0000000000000000     
   0.0000000000000000        6.4711269014538775E-002  0.48437500000000000     
   0.0000000000000000        6.9225209415320288E-002  0.33114145848017668     
   0.0000000000000000        7.0413861272891454E-002  0.92958613872710860     
   0.0000000000000000        7.9770917049368548E-002  0.64062500000000000     
   0.0000000000000000        8.3926071099233085E-002  0.28526314383622647     
   0.0000000000000000        8.7633724434323254E-002  0.42187500000000000     
   0.0000000000000000        8.7633724434323254E-002  0.54687500000000000     
   0.0000000000000000        8.8068181818181823E-002  0.14062500000000000     
   0.0000000000000000        9.3750000000000000E-002   0.0000000000000000     
   0.0000000000000000        9.3750000000000000E-002   1.0000000000000000     
   0.0000000000000000       0.10119805731737391       0.89303091974927329     
   0.0000000000000000       0.10210219776924923        7.0764746741824577E-002
   0.0000000000000000       0.10635988421955403       0.21957230430375799     
   0.0000000000000000       0.10740857139383649       0.84564547603995810     
   0.0000000000000000       0.10786461042496739       0.46474837701534855     
   0.0000000000000000       0.10968401176898811       0.73824428233438488     
   0.0000000000000000       0.10969220020645358       0.95550186482507926     
   0.0000000000000000       0.11544264275928678       0.79209098776725284     
   0.0000000000000000       0.11808901360852578       0.59663401005457384     
   0.0000000000000000       0.12041430467853043       0.67800854775312602     
   0.0000000000000000       0.12335307882294175       0.17407035117359601     
   0.0000000000000000       0.12500000000000000        0.0000000000000000     
   0.0000000000000000       0.12500000000000000        1.0000000000000000     
   0.0000000000000000       0.13002446100559079       0.36656116971438985     
   0.0000000000000000       0.13068181818181818       0.29687500000000000     
   0.0000000000000000       0.13145794935938171       0.52792875194736344     
   0.0000000000000000       0.13152145848091723       0.25413323966508028     
   0.0000000000000000       0.14029998073959937       0.12855113636363635     
   0.0000000000000000       0.14062500000000000       0.92003956561172884     
   0.0000000000000000       0.14354289369273243        4.6375564186635417E-002
   0.0000000000000000       0.14789203175728108       0.42415466219925380     
   0.0000000000000000       0.15101795183539601       0.48437500000000000     
   0.0000000000000000       0.15625000000000000        0.0000000000000000     
   0.0000000000000000       0.15625000000000000        1.0000000000000000     
   0.0000000000000000       0.15812483216952217       0.81572518579617204     
   0.0000000000000000       0.16016925006360749       0.76155969044955663     
   0.0000000000000000       0.16105769230769232       0.64062500000000000     
   0.0000000000000000       0.16498033923188599       0.56192540447066308     
   0.0000000000000000       0.16681364204580570       0.86373403073390376     
   0.0000000000000000       0.16773736985982415       0.70646802951986931     
   0.0000000000000000       0.17187500000000000        8.5227272727272721E-002
   0.0000000000000000       0.17187500000000000       0.17187500000000000     
   0.0000000000000000       0.17230065023518384       0.24130278401345417     
   0.0000000000000000       0.17524993035964637       0.33214160114056268     
   0.0000000000000000       0.17536724190152050       0.95339263300749488     
   0.0000000000000000       0.18456495164560949       0.51836722168265548     
   0.0000000000000000       0.18672094257804892       0.28630188376875909     
   0.0000000000000000       0.18750000000000000        0.0000000000000000     
   0.0000000000000000       0.18750000000000000        1.0000000000000000     
   0.0000000000000000       0.19182611979586967        4.4839049992879139E-002
   0.0000000000000000       0.19736660067068895       0.38449523208871811     
   0.0000000000000000       0.19991704497100604       0.20641827567287876     
   0.0000000000000000       0.20249993440656938       0.12855113636363635     
   0.0000000000000000       0.20312500000000000       0.79687500000000000     
   0.0000000000000000       0.20592650903014437       0.91616923083075008     
   0.0000000000000000       0.20708080019865122       0.60347138662486799     
   0.0000000000000000       0.20881174380662740       0.45118373807264039     
   0.0000000000000000       0.21148737705495707       0.74054376865132920     
   0.0000000000000000       0.21407117136637366       0.65921232651476624     
   0.0000000000000000       0.21875000000000000        0.0000000000000000     
   0.0000000000000000       0.21875000000000000        1.0000000000000000     
   0.0000000000000000       0.22621916310275669       0.26036437453168837     
   0.0000000000000000       0.22693109923009044       0.84817608833212677     
   0.0000000000000000       0.22934361368355521       0.53497275561808477     
   0.0000000000000000       0.23291828960141181        6.3296820644412860E-002
   0.0000000000000000       0.23549788065273725       0.32831789642150322     
   0.0000000000000000       0.24440883944936315       0.20614550385605404     
   0.0000000000000000       0.25000000000000000        0.0000000000000000     
   0.0000000000000000       0.25000000000000000        1.0000000000000000     
   0.0000000000000000       0.25308036536593070       0.69963757175059260     
   0.0000000000000000       0.25433452960858166       0.94422008612362063     
   0.0000000000000000       0.25438783372307811       0.39434016470855998     
   0.0000000000000000       0.25455601108832415       0.63866292690521120     
   0.0000000000000000       0.25542104790070941       0.12478291206971995     
[...]
CELL_DATA     20981
SCALARS pressure double 1
LOOKUP_TABLE default
  0.77342446294962242     
  0.69969076365597027     
  0.16217249385910246     
  0.53966605818259739     
  0.25196277904165210     
   3.9243928763902106E-002
   3.7995061444230351E-002
  0.65463681817565544     
  0.67584580243210368     
   7.4538000318436465E-002
  0.34672590351178068     
  0.90120313368507654     
  0.15882028889080352     
  0.96925480164983080     
  0.13460813243594591     
  0.32578004880581207     
  0.84256663982091395     
  0.95706855395000701     
  0.96878324181335962     
  0.79717065562473477     
  0.94288754778979267     
  0.33704121611953375     
  0.35240760272475674     
   4.9381816904167930E-002
   2.9823527389419145E-002
  0.32089514372188999     
  0.30111021995851733     
  0.37228616115343321     
  0.41087965559049261     
  0.10886420806132345     
   4.0110532973835995E-002
  0.95085863088295808     
  0.34336693751076830     
  0.81153873807848120     
  0.69112468977763730     
  0.86632497694562460     
  0.36931015887555391     
  0.91782814308356542     
  0.95155809181415396     
  0.97451318860950387     
  0.43322849244786393     
  0.60674841525746437     
  0.85937500000209732     
  0.87570173362099435     
  0.24253279648723453     
  0.88368149118098482     
  0.94427051783828464     
  0.41969442158964115     
  0.96203246228975359     
  0.22405931470676352     
  0.68236755591894260     
  0.34181760561930824     
  0.21737134516926321     
  0.32385298490243070     
  0.87453908155155580     
  0.85002641793442191     
  0.70060951069746391     
  0.21500921576549589     
  0.75119639793542636     
  0.55084437614476700     
  0.26297932151856224     
  0.66618397887505287     
  0.23864618625773992     
  0.95130599436369834     
  0.42179623180869991     
  0.93017785522378105     
  0.19464362371719440     
  0.12947016371558934     
  0.80348435015187825     
   8.0790475867597869E-002
   4.9777008653663191E-002
   4.5572423855412866E-002
  0.15121474552388653     
  0.44967821308106004     
  0.95687670837801897     
  0.56859171502792849     
  0.39662550681778241     
  0.76284145168976925     
  0.48689228843036630     
  0.41826396543400779     
  0.65864383531254356     
  0.81045715009822572     
   5.0598564992378060E-002
  0.26936920717774843     
  0.17336186065970058     
  0.49737612642422524     
  0.52249047364442525     
  0.17938842130459490     
  0.48693237453145960     
  0.40659095421100727     
  0.42784259272400388     
  0.95300175203766635     
  0.44407140844113246     
  0.82503357064226079     
   3.8680635525888594E-002
  0.10415479766195347     
  0.85645609643529019     
  0.62096528805343820     
  0.33267236750646784     
  0.80605232504126201     
  0.52555095286848863     
  0.96776702754480093     
  0.55122883832050307     
  0.40722504537889437     
   9.1185870852191514E-002
  0.89141793783142709     
  0.97015767309114598     
  0.41754118427694448     
  0.97013692444301858     
  0.19061805101969048     
  0.38016168338933964     
  0.70753331731130542     
   1.5624999999905593E-002
  0.51562500000308098     
  0.29687500000324935     
  0.90618919663180098     
  0.15253052286744492     
  0.74722805520786917     
  0.96379721052427203     
  0.27961937713517898     
  0.64783838060576004     
  0.76116917062419809     
  0.26156130052245891     
  0.74871859820958631     
  0.20298671737939578     
  0.68146613490006180     
  0.70351867812510138     
  0.65199747527260976     
  0.28154528612019492     
  0.41103208968716659     
  0.32010738789274878     
  0.24294418652687949     
  0.41680663013936842     
  0.80192313243458668     
  0.96509191142338280     
  0.71350481783579001     
  0.23250904111758830     
   4.6779831860849143E-002
  0.31989429810688108     
  0.73545792688286593     
  0.57556261626662408     
  0.19044203490096850     
  0.96654941964203722     
  0.20314840729453151     
  0.14491225819481779     
  0.13043529279051042     
  0.33927337566643340     
  0.90281900996198328     
  0.52220477891327244     
  0.45377200286589076     
  0.15502965397225810     
  0.97090690103030874     
  0.96540579533156379     
  0.26936333448713601     
  0.95195365833930623     
  0.76708760397601372     
  0.90824132880438568     
  0.25381417627314118     
  0.29881644287391140     
  0.88906651805321979     
  0.95139418701302214     
  0.12175187267793713     
  0.30606942587313046     
  0.53724973501478746     
  0.24786960656758361     
  0.98437500000207501     
  0.49352175400672210     
   4.8195226411722726E-002
  0.19963123988999901     
  0.96287661725433382     
  0.55977814126754377     
  0.42187500000209099     
  0.52025819797310968     
   3.5622845856430968E-002
  0.46281327528835753     
  0.46151188423950273     
  0.51215629539019136     
  0.93207134716631168     
   2.7944954192717850E-002
  0.35583280046577098     
  0.90627246874593903     
  0.87367541311318975     
  0.55465146732858928     
  0.77248675956828206     
  0.33630494172033149     
  0.85752336534397766     
  0.29687500000061479     
  0.58972762297178893     
  0.90091441732430155     
  0.52890953536141527     
  0.86449953609321128     
   5.8908153098586227E-002
   4.6513305478106809E-002
  0.37557931356226076     
  0.87837972179872748     
  0.27622261316200153     
  0.33130149013314214     
  0.40730259471275482     
  0.68665994616679482     
  0.72213034855678759     
  0.11016776659250931     
  0.67930639053408293     
  0.43130179410713221     
  0.83644952221648561     
  0.39055099076663763     
   4.3619150461489627E-002
   7.7802869359315380E-002
  0.23636137189876016     
  0.34958571802184546     
  0.35069724201817809     
   3.9245923755316929E-002
  0.74291351635237446     
  0.97306174462757167     
  0.61272703863085365     
  0.44980705558875578     
  0.23691387625029414     
  0.87012378387029754     
  0.58247355156398362     
  0.91404550676401830     
  0.16621885405921674     
  0.71926831689746051     
  0.26814296168243990     
  0.51211721947787536     
   1.5624999999919485E-002
  0.16268834296540294     
  0.67019046751250733     
   5.7010607789091020E-002
  0.42326183016733943     
   3.2576547359647254E-002
  0.94814128144643506     
  0.71586536804504797     
  0.52068352402004137     
  0.53773207582765259     
  0.62895194211698702     
  0.55697216060599652     
  0.10646422106862653     
  0.31285042015999248     
  0.63093218704070708     
  0.47845486432955386     
   9.1490240525988489E-002
  0.83256786399830163     
   3.2485131371985561E-002
  0.31605986265476077     
  0.80702413857120037     
  0.78725221627371011     
  0.42390691724650231     
  0.39440235412240776     
  0.44213101867307653     
   4.3147959530341250E-002
  0.33477701707739216     
  0.96344371580242927     
  0.90961532260420197     
   2.8579938755272778E-002
   3.1690543414857511E-002
  0.17187499999968880     
   2.6207031113778898E-002
  0.40838933343861500     
  0.33164469548512326     
  0.69772834347950496     
  0.33688273419876480     
  0.87005749284592071     
  0.20324714337053368     
  0.22571790960405594     
  0.25120369739987763     
   3.3566235275995400E-002
  0.10538446259862566     
  0.73544144896158237     
  0.15891410657773761     
  0.78566745166825958     
  0.95340389154331762     
  0.59342812595032224     
   2.5310306671237827E-002
  0.64450055303560028     
  0.76582051319265987     
  0.51272291848331752     
  0.78344542115179217     
  0.50787037148350478     
  0.71385137882079197     
  0.61320678404296092     
  0.33551406378380944     
  0.66120583004524014     
   3.2455128992175918E-002
   5.3790131564222972E-002
  0.29700895744937345     
  0.98107905477578283     
  0.94430897904942779     
  0.35200146160247120     
  0.36105908619688004     
   3.8642843236939950E-002
  0.68062112300559263     
  0.95453689916875528     
   2.5947598377453432E-002
  0.48453469892437756     
  0.93946355415881455     
  0.24292329217860573     
  0.42946202612569956     
  0.27698423520583265     
  0.33295939685670450     
  0.98437500000207911     
  0.64206010673474145     
  0.12531046662914019     
  0.16777396128548824     
  0.53218434394610759     
  0.93034956351955789     
  0.37992144845267767     
  0.40288027125207959     
  0.73688575644678878     
   5.4034348027552907E-002
  0.83392160216638156     
  0.97706635864637037     
  0.97805818053571680     
  0.14837955827446100     
   3.7512381209391786E-002
  0.48254353798260369     
  0.80530635148007246     
  0.46920961458760441     
  0.14041994659953769     
   1.5625000000280335E-002
  0.31242914343762845     
  0.22909385007543337     
  0.88905748735796575     
  0.88300081953353526     
   6.7628751106497714E-002
  0.42478576336140234     
   4.6436685604633529E-002
  0.64652508514831863     
  0.15244450155836636     
   5.0314817283611729E-002
  0.73954590278430521     
  0.76791058914430144     
  0.24565260291630497     
  0.60321684816289345     
  0.47903031626619036     
  0.97264472997494489     
  0.74765991352850825     
  0.68198391633378208     
   3.8163505646083888E-002
  0.20728903811289354     
  0.95512722178660336     
  0.43434202737902977     
  0.43486913420136925     
  0.35937500000131445     
  0.76878338877116503     
  0.54000886115334912     
  0.27685461032109793     
  0.11308815222022452     
  0.53003165542111819     
  0.44461495345408591     
  0.41170824972518216     
  0.67274050902024185     
  0.87876723750236363     
  0.88625115971960622     
  0.34664149146304907     
  0.25525035328285473     
  0.60097377445852496     
  0.19910541599832710     
  0.19031866769932454     
  0.98437500000198019     
  0.55159799703736068     
  0.60458592004382239     
  0.69044160285912193     
  0.22100476855060119     
  0.89415156707248522     
  0.27570309901915391     
  0.74111967383165034     
  0.56420675062442183     
  0.40265150351604329     
  0.77468845810540521     
  0.96954101071612153     
  0.66434483131429700     
  0.96984180551967702     
  0.36587152724955102     
  0.73242371745157042     
  0.54052003538248994     
  0.20869324655190416     
  0.88429425611979717     
  0.81015433079056876     
  0.71883684464822173     
  0.18153560493421575     
  0.70512017612213496     
  0.36038824036444639     
  0.83243055993394699     
  0.74024139162194058     
  0.86587686018392351     
  0.54016937199863280     
  0.23793131774727025     
  0.76808228440736126     
  0.73493198477811084     
  0.97302858738355735     
  0.95600937548524467     
  0.95156316734711821     
  0.18001471775183933     
  0.82815230995548250     
   5.5380720714729707E-002
  0.80680610799377817     
   4.5681542887910181E-002
  0.44814902242988602     
  0.76761227143229160     
  0.95196173115864757     
  0.37923187071495018     
  0.77364171090748002     
  0.98437500000188871     
  0.96055912042587177     
  0.61451047108006773     
   3.9882509570681852E-002
  0.12258873930703106     
  0.60157996717996665     
  0.77995615740153801     
  0.88770746988925653     
  0.71595051292121226     
  0.11915598120208509     
  0.31207095883257074     
  0.72467950343656184     
  0.28376246643779052     
  0.89354167878040403     
  0.72972762783318923     
   9.5677696208236906E-002
  0.40141402722658437     
   4.2659100891947882E-002
  0.71186479660540658     
  0.34849596394113880     
  0.39062500000002265     
  0.50489261850999667     
  0.12756383936610566     
  0.28958515557574716     
  0.39102474020219807     
  0.86364467095220931     
  0.53276386867756931     
   4.4286870055316646E-002
  0.94107981666320428     
   4.2350382567928585E-002
  0.15993089748821815     
  0.68891667847589222     
  0.16650521952024941     
  0.19649170964175619     
  0.90066878650429794     
   9.1004498285707017E-002
  0.50669293076195909     
  0.78722361748589975     
  0.86287706705002254     
   4.4804977287835203E-002
  0.56178055502483049     
  0.22020679106934063     
  0.31171746575959303     
  0.80790976690559513     
  0.12517167761489853     
  0.64312860164873009     
   4.3260615341146273E-002
  0.68110597346174029     
  0.75114888607363228     
  0.37049656234416245     
  0.18868443422746056     
  0.95132749991963539     
  0.41986415601883398     
  0.35956431669481903     
  0.90323116508111001     
  0.66445900263386026     
  0.87726860458121159     
   2.3571142060187612E-002
  0.75462345815797416     
  0.97445644195122949     
  0.16907891801350056     
  0.15559479166331872     
  0.60005832562999362     
  0.73238477488129727     
  0.46078439335594379     
  0.97095418599330829     
  0.23437499999992409     
  0.94804237606478126     
  0.32310777583869826     
  0.51974485503063905     
  0.70350266974038800     
   1.5624999999944626E-002
   4.1922435555849041E-002
  0.58267784140794632     
  0.95495882613229832     
  0.38107971951159120     
  0.40219141086810267     
  0.27482659493599176     
  0.63750350638819775     
  0.90463511928580709     
  0.61029325475551899     
  0.82483464450192956     
  0.42360057892332115     
   3.5219690574139102E-002
  0.22542172016321019     
  0.33044958012301640     
  0.64980447724708290     
  0.81874494460541858     
  0.62331451270539984     
  0.88752556121762782     
  0.41361699418482145     
  0.15562566338767947     
  0.61757788090140953     
   3.9305684813145524E-002
  0.87748035406084612     
  0.81827753801831449     
  0.14277621598635559     
  0.12778044338369279     
  0.60679160370674123     
  0.72716621294828399     
  0.72819934183951662     
  0.23658186985381538     
  0.95662621385547442     
  0.67374254661119715     
  0.87482873394841498     
  0.21455985863124602     
  0.18084171513755345     
  0.66713814931681070     
  0.56037378620703382     
  0.63351039522675723     
  0.69040888669258937     
  0.48555391645091844     
   2.2392535227639877E-002
  0.18881729740345182     
  0.93872958805209572     
   3.2869931338670284E-002
  0.96179522856041277     
  0.55297427747920147     
  0.32084800580236034     
  0.73090009282988444     
  0.12857767078977975     
  0.11749275510695412     
  0.51508123923923488     
  0.89297099903891308     
  0.94164899140237934     
  0.92753832831363758     
  0.19913724392645621     
   3.2494758800461244E-002
  0.96379771625793553     
  0.97383439965037843     
  0.73568712405146197     
   3.9066333440442573E-002
  0.45397428545539004     
  0.40668658362827842     
  0.52931678994136211     
  0.38204378677191081     
  0.56351305530323303     
  0.20492835431170167     
  0.47308563875639553     
  0.31543811251961096     
  0.90901635276082893     
  0.14980840647674246     
  0.82004791235685770     
   3.5056191478274802E-002
  0.66073057082812747     
  0.25078317656020394     
  0.69173460740752335     
  0.85415548388576146     
  0.77974907981733543     
  0.35605380941445036     
  0.88382185177177242     
   9.8206273346233733E-002
  0.31862415438437175     
  0.57311127503307779     
   2.5483511131743894E-002
  0.71134574609890489     
  0.38083770248606286     
  0.72090394243669431     
  0.79244551421862119     
  0.42765396652226129     
  0.51792752413983234     
  0.20137835027345422     
  0.22031344557656554     
   4.3780274698213127E-002
  0.34559710740081762     
  0.47971206495428537     
  0.93484491483179344     
  0.19229871634536377     
   2.5822748276585927E-002
   7.6357094555462343E-002
  0.76712377787688746     
  0.32068647522254884     
  0.24284480869648259     
  0.34197010351696755     
   8.9473631398095832E-002
  0.60737678941747308     
   2.2343250487053885E-002
  0.53963857548234540     
  0.47590912847491390     
   5.0172572823842645E-002
   2.5152466142989421E-002
  0.22279474067082608     
  0.67187500000069889     
  0.45406162838403108     
   3.0726832372603898E-002
  0.70712315727865638     
  0.90521636764759383     
  0.56065352951680880     
   3.1415801636361651E-002
   8.5191692588156842E-002
  0.42386732541324812     
  0.80320238346057538     
  0.65060797942985693     
   5.1748839076043593E-002
  0.83052005066058843     
  0.81764528733654518     
   4.9070665708319930E-002
   5.0325304179566488E-002
  0.22152128046586003     
  0.17334468826854282     
  0.29133906175985635     
  0.60878461912763571     
  0.67739312005639907     
  0.98046826257702235     
  0.78616331952831975     
  0.12694987723542400     
  0.57779734702708752     
  0.51215820661751787     
  0.12905646168779877     
  0.76579609550200867     
  0.10552989724667883     
  0.76172819849437068     
  0.45853420234705206     
  0.43433835952969096     
  0.46153212838012569     
  0.90978454565751332     
  0.90595986166258280     
  0.97839561705447331     
  0.96915251802591107     
  0.31797591144507709     
  0.86914902507624137     
  0.95225180822463251     
   9.5737888888528702E-002
  0.97039320631434067     
  0.80018483507446203     
  0.70763856924987645     
  0.45147601766377182     
   3.2074351175380308E-002
  0.66132967095787831     
  0.87833861496241949     
   3.6747525766127873E-002
  0.65771905635073691     
   5.1061576899671640E-002
   3.1539468209162973E-002
  0.60167120473097513     
  0.21386583687339078     
  0.88396805086214181     
  0.72697315774544602     
  0.43223825504720786     
  0.95231648099981137     
  0.22751021970065607     
  0.21710681123763234     
  0.29969478843168296     
  0.13407266703770518     
   3.9784696376345595E-002
  0.77299181661790783     
  0.46343184569956891     
  0.66372426208875213     
  0.14146385533522568     
  0.56942927857675563     
  0.13554114302359149     
  0.98122404760808901     
  0.95905267676172179     
  0.41984865820984657     
  0.95756436755106522     
  0.21984467002914737     
   6.2305007272653742E-002
  0.64515826077389304     
  0.75282636343657217     
  0.95610752970955937     
  0.43906997935844055     
  0.89973880791263527     
  0.57183083772917631     
  0.87212370553960661     
  0.97197805781221647     
  0.93542105375832885     
  0.46681609084525311     
  0.33528662021068473     
  0.45177958937707208     
  0.41168441875277018     
  0.47328934380933857     
  0.54892059300851337     
  0.29687499999912825     
  0.62674924051968839     
  0.96456413427871279     
  0.23898063608357159     
  0.85257602152545298     
  0.56154513283741703     
  0.26737388806286705     
  0.60916846679510450     
  0.96735597474157686     
  0.49923326149232844     
  0.96044888107231952     
  0.29991513926275509     
  0.86676173098931997     
  0.35769875582113619     
  0.68165940064650865     
  0.41016298328441192     
  0.46939847674040641     
  0.28244668279427154     
   4.3472995447262130E-002
  0.53822890174101856     
  0.96641867280333404     
   3.5771145515814222E-002
  0.79534219396157957     
   3.5594375582218014E-002
   3.0138812710965808E-002
  0.20493694772647855     
  0.55528619427222414     
  0.54374163817572474     
   3.8400614269295204E-002
   9.3174579539797978E-002
  0.16736635720251014     
  0.75045987889865873     
  0.44883541281738865     
  0.21122812160138016     
  0.30591396726281639     
  0.11733696630597060     
  0.76042321490008313     
   5.4077002326433012E-002
  0.19117610275795480     
  0.67198101116057907     
  0.27137983993347087     
  0.40565497712960608     
  0.48511074680893551     
  0.68224520565972990     
  0.22809615280945586     
  0.33455324529517932     
  0.14796170302442763     
  0.83618000647896418     
  0.62149294827014367     
  0.58720028914043110     
   4.5114065977333841E-002
  0.96204769178565352     
  0.81438739160279061     
  0.74486760656142814     
  0.94986983425574778     
  0.23521302795260132     
  0.62148079778687448     
   2.7237607727752269E-002
  0.83582698544296186     
  0.39832130258685761     
  0.29412747510306114     
  0.62059812888983634     
  0.94716085159738117     
  0.93031872766550805     
  0.55762457171504587     