# vtk DataFile Version 3.0
Unstructured Grid
ASCII
DATASET UNSTRUCTURED_GRID
POINTS      4550 double
   0.0000000000000000        0.0000000000000000        0.0000000000000000     
   0.0000000000000000        0.0000000000000000        3.1250000000000000E-002
   0.0000000000000000        0.0000000000000000        6.2500000000000000E-002
   0.0000000000000000        0.0000000000000000        9.3750000000000000E-002
   0.0000000000000000        0.0000000000000000       0.12500000000000000     
   0.0000000000000000        0.0000000000000000       0.15625000000000000     
   0.0000000000000000        0.0000000000000000       0.18750000000000000     
   0.0000000000000000        0.0000000000000000       0.21875000000000000     
   0.0000000000000000        0.0000000000000000       0.25000000000000000     
   0.0000000000000000        0.0000000000000000       0.28125000000000000     
   0.0000000000000000        0.0000000000000000       0.31250000000000000     
   0.0000000000000000        0.0000000000000000       0.34375000000000000     
   0.0000000000000000        0.0000000000000000       0.37500000000000000     
   0.0000000000000000        0.0000000000000000       0.40625000000000000     
   0.0000000000000000        0.0000000000000000       0.43750000000000000     
   0.0000000000000000        0.0000000000000000       0.46875000000000000     
   0.0000000000000000        0.0000000000000000       0.50000000000000000     
   0.0000000000000000        0.0000000000000000       0.53125000000000000     
   0.0000000000000000        0.0000000000000000       0.56250000000000000     
   0.0000000000000000        0.0000000000000000       0.59375000000000000     
   0.0000000000000000        0.0000000000000000       0.62500000000000000     
   0.0000000000000000        0.0000000000000000       0.65625000000000000     
   0.0000000000000000        0.0000000000000000       0.68750000000000000     
   0.0000000000000000        0.0000000000000000       0.71875000000000000     
   0.0000000000000000        0.0000000000000000       0.75000000000000000     
   0.0000000000000000        0.0000000000000000       0.78125000000000000     
   0.0000000000000000        0.0000000000000000       0.81250000000000000     
   0.0000000000000000        0.0000000000000000       0.84375000000000000     
   0.0000000000000000        0.0000000000000000       0.87500000000000000     
   0.0000000000000000        0.0000000000000000       0.90625000000000000     
   0.0000000000000000        0.0000000000000000       0.93750000000000000     
   0.0000000000000000        0.0000000000000000       0.96875000000000000     
   0.0000000000000000        0.0000000000000000        1.0000000000000000     
   0.0000000000000000        3.1250000000000000E-002   0.0000000000000000     
   0.0000000000000000        3.1250000000000000E-002   1.0000000000000000     
   0.0000000000000000        4.2405763908650258E-002  0.66130451259029932     
   0.0000000000000000        4.3217879046206449E-002  0.14760011926069846     
   0.0000000000000000        4.6024266659168159E-002  0.44206785664549769     
   0.0000000000000000        4.6024266659168159E-002  0.52668214335450225     
   0.0000000000000000        5.0942866059175335E-002  0.10420737699075047     
   0.0000000000000000        5.2217891062431979E-002   5.2217891062431979E-002
   0.0000000000000000        5.2761163692563604E-002  0.38171595438393841     
   0.0000000000000000        5.5068963296708517E-002  0.59134852187332609     
   0.0000000000000000        5.6120114733671470E-002  0.75604724093930309     
   0.0000000000000000        5.6324478455296215E-002  0.24577786591727294     
   0.0000000000000000        5.7363532779538949E-002  0.87371196899699510     
   0.0000000000000000        5.7470675736370332E-002  0.18930699270579771     
   0.0000000000000000        5.8263363642804059E-002  0.81429895566577748     
   0.0000000000000000        6.0887870516095753E-002  0.69980397551580908     
   0.0000000000000000        6.2500000000000000E-002   0.0000000000000000     
   0.0000000000000000        6.2500000000000000E-002   1.0000000000000000     
   0.0000000000000000        6.4711269014538775E-002  0.48437500000000000     
   0.0000000000000000        6.9225209415320288E-002  0.33114145848017668     
   0.0000000000000000        7.0413861272891454E-002  0.92958613872710860     
   0.0000000000000000        7.9770917049368548E-002  0.64062500000000000     
   0.0000000000000000        8.3926071099233085E-002  0.28526314383622647     
   0.0000000000000000        8.7633724434323254E-002  0.42187500000000000     
   0.0000000000000000        8.7633724434323254E-002  0.54687500000000000     
   0.0000000000000000        8.8068181818181823E-002  0.14062500000000000     
   0.0000000000000000        9.3750000000000000E-002   0.0000000000000000     
   0.0000000000000000        9.3750000000000000E-002   1.0000000000000000     
   0.0000000000000000       0.10119805731737391       0.89303091974927329     
   0.0000000000000000       0.10210219776924923        7.0764746741824577E-002
   0.0000000000000000       0.10635988421955403       0.21957230430375799     
   0.0000000000000000       0.10740857139383649       0.84564547603995810     
   0.0000000000000000       0.10786461042496739       0.46474837701534855     
   0.0000000000000000       0.10968401176898811       0.73824428233438488     
   0.0000000000000000       0.10969220020645358       0.95550186482507926     
   0.0000000000000000       0.11544264275928678       0.79209098776725284     
   0.0000000000000000       0.11808901360852578       0.59663401005457384     
   0.0000000000000000       0.12041430467853043       0.67800854775312602     
   0.0000000000000000       0.12335307882294175       0.17407035117359601     
   0.0000000000000000       0.12500000000000000        0.0000000000000000     
   0.0000000000000000       0.12500000000000000        1.0000000000000000     
   0.0000000000000000       0.13002446100559079       0.36656116971438985     
   0.0000000000000000       0.13068181818181818       0.29687500000000000     
   0.0000000000000000       0.13145794935938171       0.52792875194736344     
   0.0000000000000000       0.13152145848091723       0.25413323966508028     
   0.0000000000000000       0.14029998073959937       0.12855113636363635     
   0.0000000000000000       0.14062500000000000       0.92003956561172884     
   0.0000000000000000       0.14354289369273243        4.6375564186635417E-002
   0.0000000000000000       0.14789203175728108       0.42415466219925380     
   0.0000000000000000       0.15101795183539601       0.48437500000000000     
   0.0000000000000000       0.15625000000000000        0.0000000000000000     
   0.0000000000000000       0.15625000000000000        1.0000000000000000     
   0.0000000000000000       0.15812483216952217       0.81572518579617204     
   0.0000000000000000       0.16016925006360749       0.76155969044955663     
   0.0000000000000000       0.16105769230769232       0.64062500000000000     
   0.0000000000000000       0.16498033923188599       0.56192540447066308     
   0.0000000000000000       0.16681364204580570       0.86373403073390376     
   0.0000000000000000       0.16773736985982415       0.70646802951986931     
   0.0000000000000000       0.17187500000000000        8.5227272727272721E-002
   0.0000000000000000       0.17187500000000000       0.17187500000000000     
   0.0000000000000000       0.17230065023518384       0.24130278401345417     
   0.0000000000000000       0.17524993035964637       0.33214160114056268     
   0.0000000000000000       0.17536724190152050       0.95339263300749488     
   0.0000000000000000       0.18456495164560949       0.51836722168265548     
   0.0000000000000000       0.18672094257804892       0.28630188376875909     
   0.0000000000000000       0.18750000000000000        0.0000000000000000     
   0.0000000000000000       0.18750000000000000        1.0000000000000000     
   0.0000000000000000       0.19182611979586967        4.4839049992879139E-002
   0.0000000000000000       0.19736660067068895       0.38449523208871811     
   0.0000000000000000       0.19991704497100604       0.20641827567287876     
   0.0000000000000000       0.20249993440656938       0.12855113636363635     
   0.0000000000000000       0.20312500000000000       0.79687500000000000     
   0.0000000000000000       0.20592650903014437       0.91616923083075008     
   0.0000000000000000       0.20708080019865122       0.60347138662486799     
   0.0000000000000000       0.20881174380662740       0.45118373807264039     
   0.0000000000000000       0.21148737705495707       0.74054376865132920     
   0.0000000000000000       0.21407117136637366       0.65921232651476624     
   0.0000000000000000       0.21875000000000000        0.0000000000000000     
   0.0000000000000000       0.21875000000000000        1.0000000000000000     
   0.0000000000000000       0.22621916310275669       0.26036437453168837     
   0.0000000000000000       0.22693109923009044       0.84817608833212677     
   0.0000000000000000       0.22934361368355521       0.53497275561808477     
   0.0000000000000000       0.23291828960141181        6.3296820644412860E-002
   0.0000000000000000       0.23549788065273725       0.32831789642150322     
   0.0000000000000000       0.24440883944936315       0.20614550385605404     
   0.0000000000000000       0.25000000000000000        0.0000000000000000     
   0.0000000000000000       0.25000000000000000        1.0000000000000000     
   0.0000000000000000       0.25308036536593070       0.69963757175059260     
   0.0000000000000000       0.25433452960858166       0.94422008612362063     
   0.0000000000000000       0.25438783372307811       0.39434016470855998     
   0.0000000000000000       0.25455601108832415       0.63866292690521120     
   0.0000000000000000       0.25542104790070941       0.12478291206971995     
[...]
CELL_DATA     20981
SCALARS pressure double 1
LOOKUP_TABLE default
  0.77323600196412778     
  0.69952360432800709     
  0.16120941829671898     
  0.53929841474381723     
  0.25134842519805767     
   3.9124404757818955E-002
   3.7938404109233194E-002
  0.65431510219973910     
  0.67566729365947220     
   7.4424478205047218E-002
  0.34646288487724608     
  0.90113231020838302     
  0.15846128465732795     
  0.96923068744406216     
  0.13405453636245004     
  0.32383520175077024     
  0.84283025430276504     
  0.95703627263025537     
  0.96910176361828626     
  0.79968470846755835     
  0.94324742438764664     
  0.33484304567926348     
  0.35125834417102147     
   4.9306043081003510E-002
   2.9713342996512151E-002
  0.32064530336583608     
  0.30031050414396299     
  0.37198546962052909     
  0.41047907444794257     
  0.10825859461057612     
   3.9982586697655767E-002
  0.95093389561589914     
  0.34011513117731101     
  0.81166233567427681     
  0.69113667682331459     
  0.86798330726768747     
  0.36537977484350082     
  0.91776268021913532     
  0.95152867251717432     
  0.97449493877050786     
  0.43199252462039722     
  0.60634958161077990     
  0.85926002051635186     
  0.87698698268158903     
  0.24070858600769868     
  0.88366942640395518     
  0.94424978861153852     
  0.41920656280452234     
  0.96213343406963936     
  0.22316253483314605     
  0.68215967293515944     
  0.34114973939836546     
  0.21602063488781678     
  0.32343577671376023     
  0.87469935128271803     
  0.85318419451713856     
  0.70040424097085663     
  0.21470292575566285     
  0.75101467165924396     
  0.54914358962762910     
  0.26268230624887451     
  0.66590397017912872     
  0.23702565286588007     
  0.95128221871336116     
  0.41956156467424205     
  0.93081551485569025     
  0.19352348294219640     
  0.12916783111177935     
  0.80717056370346807     
   8.0617814390940457E-002
   4.9445077941605305E-002
   4.5277082237109086E-002
  0.15021100362790218     
  0.44833376361589611     
  0.95722398289217037     
  0.56823820064269670     
  0.39623009659862385     
  0.76462059690392903     
  0.48294487985783602     
  0.41619143953971560     
  0.65845574328912593     
  0.81150215460960506     
   5.0466214937238817E-002
  0.26757462318791359     
  0.17214395133101357     
  0.49657134426838673     
  0.52089145333664966     
  0.17907085633118416     
  0.48614145379827806     
  0.40602632309030212     
  0.42688845295719757     
  0.95297117431166289     
  0.44293941795184816     
  0.82563747628282880     
   3.8441038041469346E-002
  0.10349248687156586     
  0.85651210562925706     
  0.62063454045388022     
  0.33184704345942040     
  0.80612523164626104     
  0.52455098867350436     
  0.96777315446232826     
  0.54839511858485968     
  0.40522764843897507     
   9.0610375819766401E-002
  0.89136303501033587     
  0.97017816381724320     
  0.41722654763640549     
  0.97011522595762179     
  0.19038646975692436     
  0.37974371400796930     
  0.71510404513922654     
   1.5612495823868509E-002
  0.51524650855941034     
  0.29641828452872571     
  0.90640944185378214     
  0.15160814228837233     
  0.74706479472474052     
  0.96378614298230325     
  0.27774249732668821     
  0.64750016356939799     
  0.76721848287265848     
  0.26126862275656804     
  0.74856578448177502     
  0.20266079432647266     
  0.68143293980928732     
  0.70331709984100699     
  0.65174496706232010     
  0.28128431467155535     
  0.41075566255561674     
  0.31743840193959466     
  0.24197736289516253     
  0.41633428864446603     
  0.80180008744041054     
  0.96518461204744499     
  0.71333351589833249     
  0.23214814678934387     
   4.6713266252220706E-002
  0.31822015346295235     
  0.73523312929393858     
  0.57460853572231030     
  0.18911305409375814     
  0.96707578677436379     
  0.20178572920429799     
  0.14479482437079261     
  0.12969657742267007     
  0.33898162464215631     
  0.90274960096779844     
  0.52191962819014537     
  0.45316252849009603     
  0.15426422895330405     
  0.97099826171913961     
  0.96549954667626003     
  0.26916831320885926     
  0.95192183740189695     
  0.76734717726404289     
  0.90817276608133701     
  0.25226650219379343     
  0.29642199872256059     
  0.88907164007176354     
  0.95148018054054961     
  0.12137754547806169     
  0.30553767938775522     
  0.53576818892550837     
  0.24738318439846810     
  0.98437198484537791     
  0.49084642442712240     
   4.8064022189880928E-002
  0.19928016532860957     
  0.96286978203468099     
  0.55946042239838711     
  0.41991828930779962     
  0.51916084138156737     
   3.5560290337781235E-002
  0.46205460427257361     
  0.46128295953814269     
  0.51177331328343800     
  0.93204242619312694     
   2.7906072940553566E-002
  0.35551765104493938     
  0.90621357012364767     
  0.87471115700236612     
  0.55340589211211999     
  0.77232358485354369     
  0.33573973813586122     
  0.85849647772591897     
  0.29514442519926876     
  0.57609771596304316     
  0.90167986918376042     
  0.52785583632310507     
  0.86445622234514563     
   5.8811495820700659E-002
   4.6385063215421470E-002
  0.37275571424722037     
  0.87871517715341507     
  0.27579858223476406     
  0.32943134707260141     
  0.40696105887348966     
  0.68822513219532744     
  0.72188750886155428     
  0.11002240545415978     
  0.67906009914266752     
  0.42980590245138517     
  0.83759891409090603     
  0.39021939466551964     
   4.3557093241369089E-002
   7.7734453898898812E-002
  0.23602735127218732     
  0.34796487440992951     
  0.35013041262687100     
   3.9050082210219154E-002
  0.74277086180958229     
  0.97304109574622377     
  0.61173020894653596     
  0.44931200889260053     
  0.23540452677001525     
  0.87003212136344232     
  0.58209533203385644     
  0.91398485300643606     
  0.16517075923908098     
  0.71911202553006726     
  0.26641730889835163     
  0.51174001643877487     
   1.5524571731858089E-002
  0.16245316004367574     
  0.66984696706907088     
   5.6671022289502763E-002
  0.42279923605754982     
   3.2364648845843134E-002
  0.94812233020253889     
  0.71565866564046832     
  0.51932865445745757     
  0.53717668083300985     
  0.62869877290596710     
  0.55674810428996191     
  0.10631672441984125     
  0.31246937516392920     
  0.63060867517796015     
  0.47585073269041500     
   9.0853121934401801E-002
  0.83468515924543885     
   3.2430114955974004E-002
  0.31424128672362611     
  0.80690400288987263     
  0.78709223721909272     
  0.42350993779429758     
  0.39192328770775231     
  0.44148222041181823     
   4.3015154729184199E-002
  0.33456674303667477     
  0.96375564621976773     
  0.90994546226761186     
   2.8539085388099839E-002
   3.1644529294367271E-002
  0.17164235966809985     
   2.6064394468217449E-002
  0.40802262837542980     
  0.32976900306089219     
  0.69752004552023994     
  0.33643937522184236     
  0.87085474138733110     
  0.20286998791176192     
  0.22417636919346581     
  0.25097239855998510     
   3.3416610465407330E-002
  0.10486532413759662     
  0.73521691827241886     
  0.15867765810262810     
  0.78600710349302172     
  0.95340341885280278     
  0.59241349602134863     
   2.5288385982303541E-002
  0.64425395112704098     
  0.76915663908574217     
  0.51208228625226471     
  0.78489554187940647     
  0.50432924259769174     
  0.71448086804202982     
  0.61285615729077814     
  0.33506048859340787     
  0.66092146303223909     
   3.2425390320097863E-002
   5.3720277060671347E-002
  0.29489707015923644     
  0.98106510399485847     
  0.94428762852388826     
  0.35040414965278688     
  0.36065702441319564     
   3.8426797810125701E-002
  0.68827170421154893     
  0.95450119306202363     
   2.5813478524733445E-002
  0.48401672551227770     
  0.93946732372010089     
  0.24256943777073109     
  0.42899535436674013     
  0.27676164969929462     
  0.33143394384764818     
  0.98436256641558340     
  0.64103107851798746     
  0.12481916950734029     
  0.16672082673593450     
  0.52990696969507789     
  0.93030476200149770     
  0.37941492282812200     
  0.40233514618375538     
  0.73739720426157940     
   5.3976613575496574E-002
  0.83430515697306107     
  0.97704901507518194     
  0.97805333509131254     
  0.14814390867567756     
   3.7441298435374804E-002
  0.48210828071338230     
  0.80519296150128983     
  0.46615314817411790     
  0.13999104105385038     
   1.5594262531750960E-002
  0.31214113290232026     
  0.22881029659061211     
  0.88999620056213780     
  0.88423577812778786     
   6.7538732227599735E-002
  0.42246067152965244     
   4.6360142860082235E-002
  0.64630615417728932     
  0.15194457673975134     
   5.0196546520471029E-002
  0.73973115769273567     
  0.77384352273345536     
  0.24496459991897310     
  0.59919259151005622     
  0.47776617835708207     
  0.97284907344956018     
  0.74750174381168277     
  0.68174033770515841     
   3.8132507405077280E-002
  0.20580241842489613     
  0.95584191316115441     
  0.43409786713829918     
  0.43391513729721259     
  0.35742996488493972     
  0.76863931657604057     
  0.53974510559405997     
  0.27617563267787260     
  0.11249623634483041     
  0.52866791348918862     
  0.44421659755126480     
  0.40986639203501946     
  0.67252225465444371     
  0.87943537002812666     
  0.88641424830159921     
  0.34624068155744292     
  0.25474058045304965     
  0.60056332010726343     
  0.19880597449695689     
  0.18909097588389770     
  0.98436566682788551     
  0.55120923766708863     
  0.60415994037717780     
  0.69022859722927254     
  0.22070464828939237     
  0.89407743869242018     
  0.27357461381206544     
  0.74095748470304446     
  0.56363960924845258     
  0.40202368187457033     
  0.77454549944622741     
  0.96982464731577833     
  0.66411089409291280     
  0.96983598589377917     
  0.36549638822631264     
  0.73219573857417264     
  0.54002444172628195     
  0.20850581562304579     
  0.88427313985026357     
  0.81003212181955098     
  0.71865361453715493     
  0.18108447742554101     
  0.70487000244932918     
  0.35969093073788433     
  0.83265349236404984     
  0.74006300651295676     
  0.86582902801754036     
  0.53532684266048514     
  0.23770875317940854     
  0.76793476499124591     
  0.73497213541949102     
  0.97301871965544473     
  0.95597590878313687     
  0.95152710119385286     
  0.17875484310946749     
  0.83104331054039982     
   5.5029902887396023E-002
  0.80668835009819162     
   4.5619837892834213E-002
  0.44775628746990287     
  0.76828677572148518     
  0.95194672770051059     
  0.37798578612457578     
  0.77346873182650155     
  0.98447008137064551     
  0.96053139620308159     
  0.61389195994096668     
   3.9816291421546822E-002
  0.12173168950363077     
  0.60108552135403681     
  0.78008194550193166     
  0.88822534222444427     
  0.71578039916876368     
  0.11841542711104745     
  0.31149618228506776     
  0.72717079026684794     
  0.28338405162541025     
  0.89513720898445992     
  0.72956925206979617     
   9.5514169936979462E-002
  0.40073198896638806     
   4.2496986313536406E-002
  0.71483585641881409     
  0.34657041134934558     
  0.39040348461637570     
  0.50458688941165519     
  0.12732570785071587     
  0.28914507266483314     
  0.38887853625373231     
  0.86355732705130772     
  0.53253289170520879     
   4.4115026937072532E-002
  0.94133441223615977     
   4.2287458913220249E-002
  0.15877444258164020     
  0.68906679081455435     
  0.16533192954241116     
  0.19505689659525072     
  0.90061747088139099     
   9.0430107670661716E-002
  0.50611927847706917     
  0.78913520780651303     
  0.86307637686352989     
   4.4754215479921450E-002
  0.56120196555443458     
  0.21991228227728013     
  0.30952030277505821     
  0.80775769842836798     
  0.12455056469291473     
  0.64290427302544073     
   4.3085553944514209E-002
  0.68081089175290421     
  0.75099769270685435     
  0.37010868687692050     
  0.18845800377900862     
  0.95182390905914438     
  0.41920482955794280     
  0.35923074184606180     
  0.90317245435823956     
  0.66417746184274873     
  0.87727280539605013     
   2.3539453169482912E-002
  0.75503081924701743     
  0.97444000979331702     
  0.16887479507518280     
  0.15544861863909168     
  0.59971869860788651     
  0.73216068035199589     
  0.45753010465928745     
  0.97093303615948379     
  0.23407682222874096     
  0.94806721407874883     
  0.32201716953785647     
  0.51940218457096954     
  0.70475674505626584     
   1.5602312770405975E-002
   4.1832653599609144E-002
  0.54572713753628133     
  0.95493986123889640     
  0.38069399574992302     
  0.39853112570406823     
  0.27362872437105373     
  0.63722062031315430     
  0.90457643323380466     
  0.60996983953566564     
  0.82472786631532946     
  0.42320301426102319     
   3.5167321877448102E-002
  0.22453130696520582     
  0.33008267315543827     
  0.64949690450991104     
  0.81863260813655425     
  0.62276792215766386     
  0.88747962578047734     
  0.41303573280990047     
  0.15509297474612288     
  0.61755515912190340     
   3.9138100173461574E-002
  0.87748832334872240     
  0.81813463835389777     
  0.14265731265634687     
  0.12764887328209229     
  0.60646322503671135     
  0.72696705389009386     
  0.72829993370142510     
  0.23639883826464955     
  0.95681730622532679     
  0.67352122248464674     
  0.87635861725092790     
  0.21316341285944279     
  0.18057694651566381     
  0.66689892966499664     
  0.55991176462123393     
  0.63327826526130704     
  0.69036755501675373     
  0.48531003544148121     
   2.2368221315070391E-002
  0.18859076447649437     
  0.93877490893621363     
   3.2832541551659995E-002
  0.96177212928050226     
  0.55264573486814572     
  0.32031316409944333     
  0.73067020894483570     
  0.12840338092282663     
  0.11731050819444445     
  0.50929976790513376     
  0.89305659936045245     
  0.94168821223559973     
  0.92750661680772883     
  0.19816946217521095     
   3.2457730990954649E-002
  0.96393267063269483     
  0.97388019919784352     
  0.74530154935535464     
   3.8954896143731745E-002
  0.45026961879838356     
  0.40506268051522737     
  0.52828747542275090     
  0.38004762242252632     
  0.56158674184468216     
  0.20465100928679364     
  0.46813417851264250     
  0.31509307292189304     
  0.90903858051434494     
  0.14916498494040997     
  0.81994089836634076     
   3.4829995142120374E-002
  0.66170880715473412     
  0.24991780569464189     
  0.69155080124663726     
  0.85410260391987847     
  0.77956873277039085     
  0.35554439590159648     
  0.88592589840661307     
   9.8094026433409753E-002
  0.31611984311712010     
  0.57289693581242163     
   2.5435351700085235E-002
  0.71584822294109762     
  0.37971289726021168     
  0.72073476521276791     
  0.79479548211447992     
  0.42712300508598322     
  0.51734894832476253     
  0.20097360426077590     
  0.22007471836820208     
   4.3478145672847406E-002
  0.34534908508821488     
  0.47911492829124031     
  0.93489425493899392     
  0.19135529183603392     
   2.5800693058247760E-002
   7.6260501158228911E-002
  0.76694269923759484     
  0.31979075814569874     
  0.24249444062702341     
  0.34120948535797524     
   8.9395229328904854E-002
  0.60706309626656518     
   2.2300081275335094E-002
  0.53910015111337894     
  0.47557007314592969     
   4.9901189848170567E-002
   2.5103739474254080E-002
  0.22140781807807219     
  0.67169579485385023     
  0.45332278742443749     
   3.0682888499826647E-002
  0.70716587587098123     
  0.90575064589153265     
  0.55945046148478283     
   3.1309145009082960E-002
   8.5102768615146443E-002
  0.42351542182884461     
  0.80316000746740168     
  0.65038679713379988     
   5.1677318058489484E-002
  0.83042072437984316     
  0.81962364999611925     
   4.8873236801753261E-002
   5.0009631025769025E-002
  0.22054613220077976     
  0.17209347139832079     
  0.29085428151090514     
  0.60855392449047074     
  0.67707465951927492     
  0.98050700584878725     
  0.78750781952321625     
  0.12617671959974336     
  0.57744175078567106     
  0.51184738090178794     
  0.12894346807074558     
  0.76564831982033354     
  0.10505494387107260     
  0.76453599311966480     
  0.45776029779263810     
  0.43411088683750165     
  0.46022574040864250     
  0.90976822522071854     
  0.90645348116561764     
  0.97837931336319650     
  0.96912949596164388     
  0.31646953098531228     
  0.87106126240299464     
  0.95221523758927540     
   9.5542824378127472E-002
  0.97041295986603249     
  0.80040101108170425     
  0.70868603642385641     
  0.45087621215206103     
   3.2003501128548564E-002
  0.66102095399393102     
  0.87824148994661111     
   3.6512987069163914E-002
  0.65735677745643106     
   5.1006913398951401E-002
   3.1378565611721629E-002
  0.56889102308976403     
  0.21361180353631279     
  0.88395482052482111     
  0.72743183383197352     
  0.43158676697598841     
  0.95239980386518142     
  0.22594184545444923     
  0.21576064054584448     
  0.29949639352106600     
  0.13311829152780641     
   3.9729843933191157E-002
  0.77316303382374529     
  0.46190398344729272     
  0.66344124648748448     
  0.14117235395224328     
  0.54941121254683478     
  0.13477214498883927     
  0.98120992204167490     
  0.95912376345194894     
  0.41935591546968692     
  0.95753569141736927     
  0.21954531776238506     
   6.1910824056735342E-002
  0.64494141175954711     
  0.75262769821922415     
  0.95607655921348311     
  0.43852637190123189     
  0.90029709010051551     
  0.57145337824121945     
  0.87396694921648854     
  0.97196131440747324     
  0.93537174069613471     
  0.46561425149724789     
  0.33506370879632508     
  0.45087697345868988     
  0.41028552722141276     
  0.47293666933337075     
  0.54864817230058149     
  0.29668007692189191     
  0.62643178796861854     
  0.96458868220779048     
  0.23757793420840739     
  0.85432036396193345     
  0.55517625812881544     
  0.26665656969792584     
  0.60818513197149282     
  0.96734345022012169     
  0.49804664267831650     
  0.96042734452856993     
  0.29817223944823190     
  0.86671412058326247     
  0.35445041150309620     
  0.68653455558629406     
  0.40818008919159621     
  0.46897076855203301     
  0.28172509196092860     
   4.3404974805097939E-002
  0.53774801746495171     
  0.96641173252357571     
   3.5625360829903974E-002
  0.79560084355683613     
   3.5544112597187663E-002
   3.0087015792123823E-002
  0.20434016560152005     
  0.55453564744970718     
  0.54231898556010527     
   3.8332363252513227E-002
   9.2544453771888413E-002
  0.16617095768324014     
  0.75036744170507153     
  0.44208018173106145     
  0.21081499812989654     
  0.30519728325992923     
  0.11687354300035460     
  0.76027765941784897     
   5.3750528177988477E-002
  0.19063510316517915     
  0.67209278325773014     
  0.27068453832388256     
  0.40443711072275473     
  0.48465170664304924     
  0.68201296879741025     
  0.22780460939707523     
  0.33321532377785984     
  0.14743172638886298     
  0.83616991741866742     
  0.61843248214035151     
  0.58597375042766342     
   4.5057659520408730E-002
  0.96202230689696744     
  0.81427552698029693     
  0.74471304295428919     
  0.94983252101221827     
  0.23362972185667852     
  0.62154099842273247     
   2.7111995104884743E-002
  0.83598775835336914     
  0.39584059201294913     
  0.29368957573652033     
  0.62013703601259862     
  0.94810539597062460     
  0.93048100858034899     
  0.55735487407761009     