# vtk DataFile Version 3.0
Unstructured Grid
ASCII
DATASET UNSTRUCTURED_GRID
POINTS      4550 double
   0.0000000000000000        0.0000000000000000        0.0000000000000000     
   0.0000000000000000        0.0000000000000000        3.1250000000000000E-002
   0.0000000000000000        0.0000000000000000        6.2500000000000000E-002
   0.0000000000000000        0.0000000000000000        9.3750000000000000E-002
   0.0000000000000000        0.0000000000000000       0.12500000000000000     
   0.0000000000000000        0.0000000000000000       0.15625000000000000     
   0.0000000000000000        0.0000000000000000       0.18750000000000000     
   0.0000000000000000        0.0000000000000000       0.21875000000000000     
   0.0000000000000000        0.0000000000000000       0.25000000000000000     
   0.0000000000000000        0.0000000000000000       0.28125000000000000     
   0.0000000000000000        0.0000000000000000       0.31250000000000000     
   0.0000000000000000        0.0000000000000000       0.34375000000000000     
   0.0000000000000000        0.0000000000000000       0.37500000000000000     
   0.0000000000000000        0.0000000000000000       0.40625000000000000     
   0.0000000000000000        0.0000000000000000       0.43750000000000000     
   0.0000000000000000        0.0000000000000000       0.46875000000000000     
   0.0000000000000000        0.0000000000000000       0.50000000000000000     
   0.0000000000000000        0.0000000000000000       0.53125000000000000     
   0.0000000000000000        0.0000000000000000       0.56250000000000000     
   0.0000000000000000        0.0000000000000000       0.59375000000000000     
   0.0000000000000000        0.0000000000000000       0.62500000000000000     
   0.0000000000000000        0.0000000000000000       0.65625000000000000     
   0.0000000000000000        0.0000000000000000       0.68750000000000000     
   0.0000000000000000        0.0000000000000000       0.71875000000000000     
   0.0000000000000000        0.0000000000000000       0.75000000000000000     
   0.0000000000000000        0.0000000000000000       0.78125000000000000     
   0.0000000000000000        0.0000000000000000       0.81250000000000000     
   0.0000000000000000        0.0000000000000000       0.84375000000000000     
   0.0000000000000000        0.0000000000000000       0.87500000000000000     
   0.0000000000000000        0.0000000000000000       0.90625000000000000     
   0.0000000000000000        0.0000000000000000       0.93750000000000000     
   0.0000000000000000        0.0000000000000000       0.96875000000000000     
   0.0000000000000000        0.0000000000000000        1.0000000000000000     
   0.0000000000000000        3.1250000000000000E-002   0.0000000000000000     
   0.0000000000000000        3.1250000000000000E-002   1.0000000000000000     
   0.0000000000000000        4.2405763908650258E-002  0.66130451259029932     
   0.0000000000000000        4.3217879046206449E-002  0.14760011926069846     
   0.0000000000000000        4.6024266659168159E-002  0.44206785664549769     
   0.0000000000000000        4.6024266659168159E-002  0.52668214335450225     
   0.0000000000000000        5.0942866059175335E-002  0.10420737699075047     
   0.0000000000000000        5.2217891062431979E-002   5.2217891062431979E-002
   0.0000000000000000        5.2761163692563604E-002  0.38171595438393841     
   0.0000000000000000        5.5068963296708517E-002  0.59134852187332609     
   0.0000000000000000        5.6120114733671470E-002  0.75604724093930309     
   0.0000000000000000        5.6324478455296215E-002  0.24577786591727294     
   0.0000000000000000        5.7363532779538949E-002  0.87371196899699510     
   0.0000000000000000        5.7470675736370332E-002  0.18930699270579771     
   0.0000000000000000        5.8263363642804059E-002  0.81429895566577748     
   0.0000000000000000        6.0887870516095753E-002  0.69980397551580908     
   0.0000000000000000        6.2500000000000000E-002   0.0000000000000000     
   0.0000000000000000        6.2500000000000000E-002   1.0000000000000000     
   0.0000000000000000        6.4711269014538775E-002  0.48437500000000000     
   0.0000000000000000        6.9225209415320288E-002  0.33114145848017668     
   0.0000000000000000        7.0413861272891454E-002  0.92958613872710860     
   0.0000000000000000        7.9770917049368548E-002  0.64062500000000000     
   0.0000000000000000        8.3926071099233085E-002  0.28526314383622647     
   0.0000000000000000        8.7633724434323254E-002  0.42187500000000000     
   0.0000000000000000        8.7633724434323254E-002  0.54687500000000000     
   0.0000000000000000        8.8068181818181823E-002  0.14062500000000000     
   0.0000000000000000        9.3750000000000000E-002   0.0000000000000000     
   0.0000000000000000        9.3750000000000000E-002   1.0000000000000000     
   0.0000000000000000       0.10119805731737391       0.89303091974927329     
   0.0000000000000000       0.10210219776924923        7.0764746741824577E-002
   0.0000000000000000       0.10635988421955403       0.21957230430375799     
   0.0000000000000000       0.10740857139383649       0.84564547603995810     
   0.0000000000000000       0.10786461042496739       0.46474837701534855     
   0.0000000000000000       0.10968401176898811       0.73824428233438488     
   0.0000000000000000       0.10969220020645358       0.95550186482507926     
   0.0000000000000000       0.11544264275928678       0.79209098776725284     
   0.0000000000000000       0.11808901360852578       0.59663401005457384     
   0.0000000000000000       0.12041430467853043       0.67800854775312602     
   0.0000000000000000       0.12335307882294175       0.17407035117359601     
   0.0000000000000000       0.12500000000000000        0.0000000000000000     
   0.0000000000000000       0.12500000000000000        1.0000000000000000     
   0.0000000000000000       0.13002446100559079       0.36656116971438985     
   0.0000000000000000       0.13068181818181818       0.29687500000000000     
   0.0000000000000000       0.13145794935938171       0.52792875194736344     
   0.0000000000000000       0.13152145848091723       0.25413323966508028     
   0.0000000000000000       0.14029998073959937       0.12855113636363635     
   0.0000000000000000       0.14062500000000000       0.92003956561172884     
   0.0000000000000000       0.14354289369273243        4.6375564186635417E-002
   0.0000000000000000       0.14789203175728108       0.42415466219925380     
   0.0000000000000000       0.15101795183539601       0.48437500000000000     
   0.0000000000000000       0.15625000000000000        0.0000000000000000     
   0.0000000000000000       0.15625000000000000        1.0000000000000000     
   0.0000000000000000       0.15812483216952217       0.81572518579617204     
   0.0000000000000000       0.16016925006360749       0.76155969044955663     
   0.0000000000000000       0.16105769230769232       0.64062500000000000     
   0.0000000000000000       0.16498033923188599       0.56192540447066308     
   0.0000000000000000       0.16681364204580570       0.86373403073390376     
   0.0000000000000000       0.16773736985982415       0.70646802951986931     
   0.0000000000000000       0.17187500000000000        8.5227272727272721E-002
   0.0000000000000000       0.17187500000000000       0.17187500000000000     
   0.0000000000000000       0.17230065023518384       0.24130278401345417     
   0.0000000000000000       0.17524993035964637       0.33214160114056268     
   0.0000000000000000       0.17536724190152050       0.95339263300749488     
   0.0000000000000000       0.18456495164560949       0.51836722168265548     
   0.0000000000000000       0.18672094257804892       0.28630188376875909     
   0.0000000000000000       0.18750000000000000        0.0000000000000000     
   0.0000000000000000       0.18750000000000000        1.0000000000000000     
   0.0000000000000000       0.19182611979586967        4.4839049992879139E-002
   0.0000000000000000       0.19736660067068895       0.38449523208871811     
   0.0000000000000000       0.19991704497100604       0.20641827567287876     
   0.0000000000000000       0.20249993440656938       0.12855113636363635     
   0.0000000000000000       0.20312500000000000       0.79687500000000000     
   0.0000000000000000       0.20592650903014437       0.91616923083075008     
   0.0000000000000000       0.20708080019865122       0.60347138662486799     
   0.0000000000000000       0.20881174380662740       0.45118373807264039     
   0.0000000000000000       0.21148737705495707       0.74054376865132920     
   0.0000000000000000       0.21407117136637366       0.65921232651476624     
   0.0000000000000000       0.21875000000000000        0.0000000000000000     
   0.0000000000000000       0.21875000000000000        1.0000000000000000     
   0.0000000000000000       0.22621916310275669       0.26036437453168837     
   0.0000000000000000       0.22693109923009044       0.84817608833212677     
   0.0000000000000000       0.22934361368355521       0.53497275561808477     
   0.0000000000000000       0.23291828960141181        6.3296820644412860E-002
   0.0000000000000000       0.23549788065273725       0.32831789642150322     
   0.0000000000000000       0.24440883944936315       0.20614550385605404     
   0.0000000000000000       0.25000000000000000        0.0000000000000000     
   0.0000000000000000       0.25000000000000000        1.0000000000000000     
   0.0000000000000000       0.25308036536593070       0.69963757175059260     
   0.0000000000000000       0.25433452960858166       0.94422008612362063     
   0.0000000000000000       0.25438783372307811       0.39434016470855998     
   0.0000000000000000       0.25455601108832415       0.63866292690521120     
   0.0000000000000000       0.25542104790070941       0.12478291206971995     
[...]
CELL_DATA     20981
SCALARS pressure double 1
LOOKUP_TABLE default
  0.77335252703632262     
  0.69963230188299597     
  0.16175909166920438     
  0.53954340416903113     
  0.25176233078042171     
   3.9197079281735173E-002
   3.7972449792318383E-002
  0.65452540507293100     
  0.67578345997451994     
   7.4500099219292251E-002
  0.34663223211265370     
  0.90117646114085981     
  0.15869375306662079     
  0.96924530068422654     
  0.13440452787568391     
  0.32482237374011841     
  0.84269932787381319     
  0.95705662510981226     
  0.96887305499161447     
  0.79834046394654790     
  0.94306784938227928     
  0.33599296908258108     
  0.35205339043537243     
   4.9354466401499528E-002
   2.9783169177619577E-002
  0.32080551537070223     
  0.30080706377349592     
  0.37218572436247849     
  0.41074178139956846     
  0.10862456465390485     
   4.0066230057781739E-002
  0.95088853242379878     
  0.34208365272257324     
  0.81158890565690722     
  0.69112233082866792     
  0.86685273392937245     
  0.36763581240813847     
  0.91780264604499306     
  0.95154702901801447     
  0.97450671163602764     
  0.43283640897771058     
  0.60655173100318049     
  0.85933027701838149     
  0.87604863615926332     
  0.24165944623845667     
  0.88368261161457573     
  0.94426244053694997     
  0.41947482094528632     
  0.96204307026235925     
  0.22374517140849098     
  0.68228008111825700     
  0.34152292180536636     
  0.21673471793758800     
  0.32371114441079291     
  0.87461638504787365     
  0.85141513233264232     
  0.70053096598058917     
  0.21490708318209503     
  0.75110458149551540     
  0.54977966909062992     
  0.26288086319959947     
  0.66608473380436362     
  0.23802166146401177     
  0.95129713936431826     
  0.42062465245888003     
  0.93045742553237876     
  0.19416481400216720     
  0.12933497165215013     
  0.80521354699943459     
   8.0713072962542459E-002
   4.9624425414751760E-002
   4.5440927529449303E-002
  0.15081013017802136     
  0.44925079668477857     
  0.95702313988355825     
  0.56846275409407920     
  0.39649013199089922     
  0.76366782062104199     
  0.48472815863798158     
  0.41718117030417068     
  0.65857788290966868     
  0.81082746293236885     
   5.0552134947664092E-002
  0.26857353378653270     
  0.17280289680549238     
  0.49708488140848917     
  0.52153692446606637     
  0.17928057530124972     
  0.48668119669941545     
  0.40640992857723174     
  0.42750933317896361     
  0.95298830574282867     
  0.44350662690888631     
  0.82508543044018745     
   3.8579977199910229E-002
  0.10385186066385579     
  0.85647533480623095     
  0.62084558622997632     
  0.33240731863633177     
  0.80606676963136692     
  0.52502987179908267     
  0.96776204143945954     
  0.55039298342692100     
  0.40619230498703057     
   9.0927133516984435E-002
  0.89139767862731789     
  0.97015843290791426     
  0.41743418523999126     
  0.97012746344193679     
  0.19054079394450615     
  0.38002530794508005     
  0.71171404997804344     
   1.5620608085639809E-002
  0.51549240786788264     
  0.29666980544500710     
  0.90630600256860216     
  0.15215430909745800     
  0.74716772312936053     
  0.96378725078588490     
  0.27895582315555001     
  0.64772084509609840     
  0.76471293171255805     
  0.26146428128859467     
  0.74866425756075983     
  0.20285679473005169     
  0.68144505003758082     
  0.70344201503482506     
  0.65189882258547605     
  0.28145519421648868     
  0.41093225339121964     
  0.31890016896502205     
  0.24259171401249538     
  0.41661767100806679     
  0.80187871393222721     
  0.96512879480883185     
  0.71344523904766965     
  0.23239030563646351     
   4.6757582447294055E-002
  0.31935328621895470     
  0.73537371069710267     
  0.57501167106228768     
  0.18982865545133196     
  0.96683916394993530     
  0.20254998585996878     
  0.14487143083494108     
  0.13013991076404377     
  0.33917520377847848     
  0.90279465291344596     
  0.52210893961897409     
  0.45355877463285688     
  0.15468393226151697     
  0.97095819852356025     
  0.96542259144379861     
  0.26929440439384367     
  0.95194260457674817     
  0.76705525441934130     
  0.90821188935057162     
  0.25307485542783498     
  0.29770032664006307     
  0.88903884049297877     
  0.95140557622446009     
  0.12159741204850673     
  0.30589767795427364     
  0.53662052972395158     
  0.24771037322000458     
  0.98437442966244693     
  0.49289631557198543     
   4.8149412942196934E-002
  0.19947552757294454     
  0.96287537675903412     
  0.55966937837350916     
  0.42084811926063931     
  0.51989361872421047     
   3.5598380717151198E-002
  0.46256710395874123     
  0.46143186699812344     
  0.51202454127730479     
  0.93206065397718096     
   2.7931804305816349E-002
  0.35572060336699318     
  0.90625193890749223     
  0.87389876166895963     
  0.55396776318096497     
  0.77243013951713024     
  0.33610376425264793     
  0.85786195681894384     
  0.29603551567762570     
  0.58880674389842746     
  0.90110126515114453     
  0.52861488099006526     
  0.86448557659724568     
   5.8875704409104543E-002
   4.6468469023631186E-002
  0.37470748257043118     
  0.87852146311404322     
  0.27608301090412168     
  0.33037910603579235     
  0.40717569981607260     
  0.68772742112994578     
  0.72203548302061915     
  0.11011145194128995     
  0.67922114432211922     
  0.43063008199782216     
  0.83687711709330659     
  0.39044109326409643     
   4.3598456637551276E-002
   7.7778930386580430E-002
  0.23624650549772869     
  0.34895941504860595     
  0.35051447526642082     
   3.9171320970441403E-002
  0.74285607356189487     
  0.97305381313836070     
  0.61249514276547756     
  0.44958570381093349     
  0.23619650147583854     
  0.87009135155356709     
  0.58234797260873661     
  0.91401795309305589     
  0.16575839718555482     
  0.71920516614332530     
  0.26737260874123892     
  0.51199198155427750     
   1.5578881039667524E-002
  0.16260922017171067     
  0.67004763261179179     
   5.6869411193358768E-002
  0.42310835775521433     
   3.2479282258839254E-002
  0.94813432959163180     
  0.71574019602597094     
  0.52008754003033009     
  0.53755239832623847     
  0.62886638360381375     
  0.55689351869591586     
  0.10641478877741486     
  0.31271415098165989     
  0.63079826590578392     
  0.47704772816364366     
   9.1195990585585196E-002
  0.83311903863027492     
   3.2462274867730255E-002
  0.31518855314200112     
  0.80698121952731727     
  0.78719675105674791     
  0.42377083059450565     
  0.39358011058681902     
  0.44183133928936530     
   4.3088103402509140E-002
  0.33470339522950193     
  0.96360781837162746     
  0.90968549866084103     
   2.8566196467298913E-002
   3.1674920407701042E-002
  0.17179594003092219     
   2.6149103072110363E-002
  0.40826866811330598     
  0.33074984355277137     
  0.69765765564577431     
  0.33673079480324214     
  0.87035010077830988     
  0.20311491439193655     
  0.22502064801993213     
  0.25112528711378512     
   3.3509317456858936E-002
  0.10518283363720866     
  0.73535773564662499     
  0.15882111437672392     
  0.78583321485142132     
  0.95340279061947442     
  0.59268623059604320     
   2.5302692318037799E-002
  0.64441393480379217     
  0.76801812001274128     
  0.51249192945913502     
  0.78374097879806381     
  0.50693177482449847     
  0.71382526385294998     
  0.61304393300379156     
  0.33531876948938227     
  0.66110508685620428     
   3.2444881739161949E-002
   5.3766746598337252E-002
  0.29610704127667475     
  0.98107397648722505     
  0.94430071300374774     
  0.35146723113532374     
  0.36090801244305315     
   3.8554076439156662E-002
  0.68255470262666074     
  0.95452283058701681     
   2.5894174086320606E-002
  0.48436524464576819     
  0.93944935924025896     
  0.24277677158986719     
  0.42930165095363193     
  0.27690570329905001     
  0.33237531408780513     
  0.98437005051858539     
  0.64187104546121310     
  0.12513120784573833     
  0.16729153579691572     
  0.53153738464227507     
  0.93033380940499977     
  0.37973624494270752     
  0.40263301632074422     
  0.73691812013389690     
   5.4013072906683390E-002
  0.83413882580301446     
  0.97705983684979913     
  0.97805697204983366     
  0.14829988019430621     
   3.7482709939348005E-002
  0.48239004812824177     
  0.80526667833195786     
  0.46749160213922414     
  0.14023206915797154     
   1.5611289921162532E-002
  0.31233119971877665     
  0.22899944508920600     
  0.88927180339965539     
  0.88353460090942160     
   6.7593857497761117E-002
  0.42356301759601034     
   4.6410772015868997E-002
  0.64642263815057788     
  0.15224941489391608     
   5.0270423127717304E-002
  0.73958668965397789     
  0.76982425197829363     
  0.24533371908492710     
  0.60270471255656433     
  0.47854250834677287     
  0.97270737132767682     
  0.74760530346583998     
  0.68190208702730870     
   3.8152637707908034E-002
  0.20660632072874180     
  0.95552542610306546     
  0.43425762148201186     
  0.43452887581907873     
  0.35840089190821650     
  0.76873223940413071     
  0.53991859768814854     
  0.27661760119481171     
  0.11281456973153203     
  0.52934532393952338     
  0.44447716169800666     
  0.41110571196006562     
  0.67265583944906193     
  0.87889230300126675     
  0.88629098255916705     
  0.34650889484368974     
  0.25506446030084229     
  0.60083984177977545     
  0.19900585429113954     
  0.18983859016376481     
  0.98437173033995773     
  0.55146946382925022     
  0.60438929214116233     
  0.69036592977261946     
  0.22090090502373730     
  0.89412221583718388     
  0.27482631014064640     
  0.74106273217863716     
  0.56398869684287911     
  0.40236130022933037     
  0.77463605306077798     
  0.96966457343953760     
  0.66426017668983017     
  0.96984070469578054     
  0.36574688035398917     
  0.73233855764421152     
  0.54036293958121073     
  0.20862855941249830     
  0.88428360651194327     
  0.81011204959196970     
  0.71877387542800997     
  0.18133001261537651     
  0.70502806361080539     
  0.36014627138971456     
  0.83251856312499017     
  0.74018035619026479     
  0.86586037516275005     
  0.53786497829185442     
  0.23785529925140364     
  0.76802818976421894     
  0.73494202506901329     
  0.97302083596573252     
  0.95599582012361184     
  0.95154924829059884     
  0.17949699294913932     
  0.82930078533700335     
   5.5223500411922269E-002
  0.80676500766178272     
   4.5660923063038227E-002
  0.44801510264117161     
  0.76771368812804341     
  0.95195625081866142     
  0.37876842479184514     
  0.77358148320760922     
  0.98440728016654988     
  0.96054672657118156     
  0.61394486720114605     
   3.9859251879075103E-002
  0.12220144408576125     
  0.60140222507469565     
  0.77995054156471111     
  0.88798496631523283     
  0.71589138799102436     
  0.11886384064436158     
  0.31183454627504997     
  0.72578816195144258     
  0.28363333634236082     
  0.89433738256935702     
  0.72966297845400108     
   9.5623133849160005E-002
  0.40116321848572811     
   4.2601360105060486E-002
  0.71320053656126470     
  0.34753849850803259     
  0.39054751008912364     
  0.50478249176984646     
  0.12748214930984228     
  0.28939572425582577     
  0.39022333706708134     
  0.86361443768487922     
  0.53268263257031778     
   4.4209585118834403E-002
  0.94111982146528317     
   4.2329111837281545E-002
  0.15940580511679101     
  0.68902518413846980     
  0.16599021156212257     
  0.19587941184485014     
  0.90064743065535380     
   9.0746229599993303E-002
  0.50642424568953848     
  0.78765966877758542     
  0.86299579337257082     
   4.4787919985139410E-002
  0.56160040443366255     
  0.22010792850442973     
  0.31096395670328825     
  0.80785496906233756     
  0.12494274099516625     
  0.64302358935929249     
   4.3194664261730804E-002
  0.68099184707166693     
  0.75108852199673315     
  0.37036357190719088     
  0.18860922493970445     
  0.95150485953836428     
  0.41964190742163116     
  0.35945392633817735     
  0.90321027270027243     
  0.66435922904521916     
  0.87726443075810345     
   2.3560571855137200E-002
  0.75487036446203881     
  0.97445073408411242     
  0.16900255637051279     
  0.15554461528125846     
  0.59990974303884415     
  0.73229392277150651     
  0.45941495860179593     
  0.97094498323606249     
  0.23427353633947373     
  0.94805264422495439     
  0.32273258485404083     
  0.51962789581366509     
  0.70386343286382524     
   1.5617297087324185E-002
   4.1891850048590737E-002
  0.57122990733015433     
  0.95494958591334633     
  0.38094967780104066     
  0.40033917189090534     
  0.27439732540368927     
  0.63738474757001329     
  0.90460537721114276     
  0.61018005587879620     
  0.82479659058630606     
  0.42346454827422703     
   3.5198807931675194E-002
  0.22500469047801239     
  0.33032742950240224     
  0.64969620819339202     
  0.81870484216211936     
  0.62279826628449630     
  0.88750657794816612     
  0.41339056463025015     
  0.15538067045904380     
  0.61665451152895090     
   3.9244357458556214E-002
  0.87748764038701876     
  0.81821976328557566     
  0.14273393077764723     
  0.12773541712727243     
  0.60665230997214525     
  0.72709853062074448     
  0.72826668798352456     
  0.23651780159304450     
  0.95666268279515698     
  0.67366686926141506     
  0.87553814181377465     
  0.21391627405807628     
  0.18075158951017778     
  0.66704669894151714     
  0.56021389191157400     
  0.63342726710965935     
  0.69038416282724580     
  0.48546863741955365     
   2.2384320384481432E-002
  0.18874205437955915     
  0.93874474456630386     
   3.2856570556293811E-002
  0.96178697792615375     
  0.55284570662585431     
  0.32066945489983928     
  0.73081345287468058     
  0.12851927457975759     
  0.11743103632001795     
  0.51149694602322315     
  0.89299070393977542     
  0.94167397572957223     
  0.92752655802560091     
  0.19879195425539481     
   3.2482319824779601E-002
  0.96387313771440464     
  0.97383608513067721     
  0.73826807728945265     
   3.9019875335775472E-002
  0.45299047284517208     
  0.40610196771421025     
  0.52903352329511877     
  0.38105026619511978     
  0.56243048342916735     
  0.20483649564686129     
  0.47042519874665989     
  0.31532413837984369     
  0.90902333173075234     
  0.14953909480629496     
  0.82000859508401214     
   3.4954118023107036E-002
  0.66126481129528702     
  0.25047347692460070     
  0.69167077778428188     
  0.85413504447692812     
  0.77967561338037028     
  0.35587873955113047     
  0.88454864972248515     
   9.8168689768444770E-002
  0.31738315939854556     
  0.57303639789931549     
   2.5462474310434722E-002
  0.71199435721520066     
  0.38048603214004673     
  0.72084557821635897     
  0.79286545730939184     
  0.42748450922423581     
  0.51771792538274997     
  0.20123882442630497     
  0.22022667946644872     
   4.3643765374758163E-002
  0.34551080685666258     
  0.47944492789085275     
  0.93487426495010928     
  0.19193250755094973     
   2.5814925179489343E-002
   7.6321067211951268E-002
  0.76706055232855364     
  0.32040023637107279     
  0.24270048260848695     
  0.34172367288211342     
   8.9446222005458098E-002
  0.60727273353593680     
   2.2324226866357065E-002
  0.53944821866301740     
  0.47578769967297413     
   5.0051309890857210E-002
   2.5130965223177287E-002
  0.22220334429165442     
  0.67181234954541158     
  0.45382887415304174     
   3.0712050233629690E-002
  0.70716218327449720     
  0.90552287977459567     
  0.55986437535093170     
   3.1367192292969123E-002
   8.5158991685139171E-002
  0.42375088272947820     
  0.80313751569642067     
  0.65053272746091995     
   5.1724942515223242E-002
  0.83048368931187155     
  0.81853436425218173     
   4.8999824867751111E-002
   5.0180067478526248E-002
  0.22116376024238782     
  0.17275969419773976     
  0.29116810733584703     
  0.60870246230544212     
  0.67727302515510579     
  0.98048655673935703     
  0.78634477020229954     
  0.12664436166538037     
  0.57767601083015263     
  0.51204216127310487     
  0.12901663819698114     
  0.76574196729804433     
  0.10535864584519301     
  0.76216351403040838     
  0.45829362722836747     
  0.43425880246340343     
  0.46090271410013123     
  0.90977993162854709     
  0.90605003719872979     
  0.97838950428385052     
  0.96914406932620212     
  0.31739511951364752     
  0.87029022400611833     
  0.95223773609683193     
   9.5671144505105721E-002
  0.97040501750197139     
  0.80020511652417048     
  0.70804602694492391     
  0.45120210993301824     
   3.2049799745169139E-002
  0.66122892057488991     
  0.87830156893346378     
   3.6640963393468291E-002
  0.65753047739632631     
   5.1041934505006159E-002
   3.1475685731834381E-002
  0.57360031019436430     
  0.21378066141907651     
  0.88396873897792638     
  0.72696977605903712     
  0.43201921679272220     
  0.95236378612140360     
  0.22684606944421659     
  0.21647094096706862     
  0.29962528801817939     
  0.13363761602940630     
   3.9766406291628816E-002
  0.77300935025765038     
  0.46294854809492753     
  0.66362300718871658     
  0.14136439708235748     
  0.55954758921983738     
  0.13522625171321734     
  0.98121879179717031     
  0.95908539892521960     
  0.41962654688331635     
  0.95755421629273907     
  0.21974334289990161     
   6.2128849660748810E-002
  0.64508412842824392     
  0.75275588450446029     
  0.95609597257887458     
  0.43888685231195340     
  0.89991442596965332     
  0.57166621284905295     
  0.87286769681354348     
  0.97197219224946130     
  0.93540234251554044     
  0.46635908623878808     
  0.33520877048881526     
  0.45146644481761494     
  0.41101131897326376     
  0.47317272499530311     
  0.54882137457861768     
  0.29680672072472852     
  0.62663920033107368     
  0.96457965211662422     
  0.23848246432503828     
  0.85363059229559590     
  0.55694315337630218     
  0.26713625237631000     
  0.60886961213616986     
  0.96735144289085107     
  0.49882310312854800     
  0.96044109679025635     
  0.29906833421500179     
  0.86674528682391272     
  0.35640156769164560     
  0.68223490597670544     
  0.40913447037613720     
  0.46924963152350085     
  0.28219255387258985     
   4.3448209142213888E-002
  0.53807739442519908     
  0.96641565054578960     
   3.5714401017975128E-002
  0.79531042907036875     
   3.5577493447437637E-002
   3.0120285367588432E-002
  0.20472628804698048     
  0.55506924453228279     
  0.54300703890644153     
   3.8375697375737441E-002
   9.2906971459283422E-002
  0.16683699871380153     
  0.75042339296944027     
  0.44603970573447121     
  0.21104315061093443     
  0.30558533126142651     
  0.11717096162256138     
  0.76037156796722771     
   5.3939877259974851E-002
  0.19094700158248135     
  0.67168041686846602     
  0.27115015253819519     
  0.40529601467916604     
  0.48496138794512067     
  0.68216124481218299     
  0.22799771211851624     
  0.33413600810913319     
  0.14772196757992895     
  0.83617076573897420     
  0.62116005935351637     
  0.58631238568868127     
   4.5092893595937586E-002
  0.96203850777892241     
  0.81434775754188626     
  0.74481258068562928     
  0.94985544940932953     
  0.23446232118613572     
  0.62065401263382070     
   2.7189355480043975E-002
  0.83582172842837033     
  0.39750596802258814     
  0.29397757674032893     
  0.62032469296183401     
  0.94757143057169835     
  0.93040213825117779     
  0.55752625819403023     