# vtk DataFile Version 3.0
Unstructured Grid
ASCII
DATASET UNSTRUCTURED_GRID
POINTS      4550 double
   0.0000000000000000        0.0000000000000000        0.0000000000000000     
   0.0000000000000000        0.0000000000000000        3.1250000000000000E-002
   0.0000000000000000        0.0000000000000000        6.2500000000000000E-002
   0.0000000000000000        0.0000000000000000        9.3750000000000000E-002
   0.0000000000000000        0.0000000000000000       0.12500000000000000     
   0.0000000000000000        0.0000000000000000       0.15625000000000000     
   0.0000000000000000        0.0000000000000000       0.18750000000000000     
   0.0000000000000000        0.0000000000000000       0.21875000000000000     
   0.0000000000000000        0.0000000000000000       0.25000000000000000     
   0.0000000000000000        0.0000000000000000       0.28125000000000000     
   0.0000000000000000        0.0000000000000000       0.31250000000000000     
   0.0000000000000000        0.0000000000000000       0.34375000000000000     
   0.0000000000000000        0.0000000000000000       0.37500000000000000     
   0.0000000000000000        0.0000000000000000       0.40625000000000000     
   0.0000000000000000        0.0000000000000000       0.43750000000000000     
   0.0000000000000000        0.0000000000000000       0.46875000000000000     
   0.0000000000000000        0.0000000000000000       0.50000000000000000     
   0.0000000000000000        0.0000000000000000       0.53125000000000000     
   0.0000000000000000        0.0000000000000000       0.56250000000000000     
   0.0000000000000000        0.0000000000000000       0.59375000000000000     
   0.0000000000000000        0.0000000000000000       0.62500000000000000     
   0.0000000000000000        0.0000000000000000       0.65625000000000000     
   0.0000000000000000        0.0000000000000000       0.68750000000000000     
   0.0000000000000000        0.0000000000000000       0.71875000000000000     
   0.0000000000000000        0.0000000000000000       0.75000000000000000     
   0.0000000000000000        0.0000000000000000       0.78125000000000000     
   0.0000000000000000        0.0000000000000000       0.81250000000000000     
   0.0000000000000000        0.0000000000000000       0.84375000000000000     
   0.0000000000000000        0.0000000000000000       0.87500000000000000     
   0.0000000000000000        0.0000000000000000       0.90625000000000000     
   0.0000000000000000        0.0000000000000000       0.93750000000000000     
   0.0000000000000000        0.0000000000000000       0.96875000000000000     
   0.0000000000000000        0.0000000000000000        1.0000000000000000     
   0.0000000000000000        3.1250000000000000E-002   0.0000000000000000     
   0.0000000000000000        3.1250000000000000E-002   1.0000000000000000     
   0.0000000000000000        4.2405763908650258E-002  0.66130451259029932     
   0.0000000000000000        4.3217879046206449E-002  0.14760011926069846     
   0.0000000000000000        4.6024266659168159E-002  0.44206785664549769     
   0.0000000000000000        4.6024266659168159E-002  0.52668214335450225     
   0.0000000000000000        5.0942866059175335E-002  0.10420737699075047     
   0.0000000000000000        5.2217891062431979E-002   5.2217891062431979E-002
   0.0000000000000000        5.2761163692563604E-002  0.38171595438393841     
   0.0000000000000000        5.5068963296708517E-002  0.59134852187332609     
   0.0000000000000000        5.6120114733671470E-002  0.75604724093930309     
   0.0000000000000000        5.6324478455296215E-002  0.24577786591727294     
   0.0000000000000000        5.7363532779538949E-002  0.87371196899699510     
   0.0000000000000000        5.7470675736370332E-002  0.18930699270579771     
   0.0000000000000000        5.8263363642804059E-002  0.81429895566577748     
   0.0000000000000000        6.0887870516095753E-002  0.69980397551580908     
   0.0000000000000000        6.2500000000000000E-002   0.0000000000000000     
   0.0000000000000000        6.2500000000000000E-002   1.0000000000000000     
   0.0000000000000000        6.4711269014538775E-002  0.48437500000000000     
   0.0000000000000000        6.9225209415320288E-002  0.33114145848017668     
   0.0000000000000000        7.0413861272891454E-002  0.92958613872710860     
   0.0000000000000000        7.9770917049368548E-002  0.64062500000000000     
   0.0000000000000000        8.3926071099233085E-002  0.28526314383622647     
   0.0000000000000000        8.7633724434323254E-002  0.42187500000000000     
   0.0000000000000000        8.7633724434323254E-002  0.54687500000000000     
   0.0000000000000000        8.8068181818181823E-002  0.14062500000000000     
   0.0000000000000000        9.3750000000000000E-002   0.0000000000000000     
   0.0000000000000000        9.3750000000000000E-002   1.0000000000000000     
   0.0000000000000000       0.10119805731737391       0.89303091974927329     
   0.0000000000000000       0.10210219776924923        7.0764746741824577E-002
   0.0000000000000000       0.10635988421955403       0.21957230430375799     
   0.0000000000000000       0.10740857139383649       0.84564547603995810     
   0.0000000000000000       0.10786461042496739       0.46474837701534855     
   0.0000000000000000       0.10968401176898811       0.73824428233438488     
   0.0000000000000000       0.10969220020645358       0.95550186482507926     
   0.0000000000000000       0.11544264275928678       0.79209098776725284     
   0.0000000000000000       0.11808901360852578       0.59663401005457384     
   0.0000000000000000       0.12041430467853043       0.67800854775312602     
   0.0000000000000000       0.12335307882294175       0.17407035117359601     
   0.0000000000000000       0.12500000000000000        0.0000000000000000     
   0.0000000000000000       0.12500000000000000        1.0000000000000000     
   0.0000000000000000       0.13002446100559079       0.36656116971438985     
   0.0000000000000000       0.13068181818181818       0.29687500000000000     
   0.0000000000000000       0.13145794935938171       0.52792875194736344     
   0.0000000000000000       0.13152145848091723       0.25413323966508028     
   0.0000000000000000       0.14029998073959937       0.12855113636363635     
   0.0000000000000000       0.14062500000000000       0.92003956561172884     
   0.0000000000000000       0.14354289369273243        4.6375564186635417E-002
   0.0000000000000000       0.14789203175728108       0.42415466219925380     
   0.0000000000000000       0.15101795183539601       0.48437500000000000     
   0.0000000000000000       0.15625000000000000        0.0000000000000000     
   0.0000000000000000       0.15625000000000000        1.0000000000000000     
   0.0000000000000000       0.15812483216952217       0.81572518579617204     
   0.0000000000000000       0.16016925006360749       0.76155969044955663     
   0.0000000000000000       0.16105769230769232       0.64062500000000000     
   0.0000000000000000       0.16498033923188599       0.56192540447066308     
   0.0000000000000000       0.16681364204580570       0.86373403073390376     
   0.0000000000000000       0.16773736985982415       0.70646802951986931     
   0.0000000000000000       0.17187500000000000        8.5227272727272721E-002
   0.0000000000000000       0.17187500000000000       0.17187500000000000     
   0.0000000000000000       0.17230065023518384       0.24130278401345417     
   0.0000000000000000       0.17524993035964637       0.33214160114056268     
   0.0000000000000000       0.17536724190152050       0.95339263300749488     
   0.0000000000000000       0.18456495164560949       0.51836722168265548     
   0.0000000000000000       0.18672094257804892       0.28630188376875909     
   0.0000000000000000       0.18750000000000000        0.0000000000000000     
   0.0000000000000000       0.18750000000000000        1.0000000000000000     
   0.0000000000000000       0.19182611979586967        4.4839049992879139E-002
   0.0000000000000000       0.19736660067068895       0.38449523208871811     
   0.0000000000000000       0.19991704497100604       0.20641827567287876     
   0.0000000000000000       0.20249993440656938       0.12855113636363635     
   0.0000000000000000       0.20312500000000000       0.79687500000000000     
   0.0000000000000000       0.20592650903014437       0.91616923083075008     
   0.0000000000000000       0.20708080019865122       0.60347138662486799     
   0.0000000000000000       0.20881174380662740       0.45118373807264039     
   0.0000000000000000       0.21148737705495707       0.74054376865132920     
   0.0000000000000000       0.21407117136637366       0.65921232651476624     
   0.0000000000000000       0.21875000000000000        0.0000000000000000     
   0.0000000000000000       0.21875000000000000        1.0000000000000000     
   0.0000000000000000       0.22621916310275669       0.26036437453168837     
   0.0000000000000000       0.22693109923009044       0.84817608833212677     
   0.0000000000000000       0.22934361368355521       0.53497275561808477     
   0.0000000000000000       0.23291828960141181        6.3296820644412860E-002
   0.0000000000000000       0.23549788065273725       0.32831789642150322     
   0.0000000000000000       0.24440883944936315       0.20614550385605404     
   0.0000000000000000       0.25000000000000000        0.0000000000000000     
   0.0000000000000000       0.25000000000000000        1.0000000000000000     
   0.0000000000000000       0.25308036536593070       0.69963757175059260     
   0.0000000000000000       0.25433452960858166       0.94422008612362063     
   0.0000000000000000       0.25438783372307811       0.39434016470855998     
   0.0000000000000000       0.25455601108832415       0.63866292690521120     
   0.0000000000000000       0.25542104790070941       0.12478291206971995     
[...]
CELL_DATA     20981
SCALARS pressure double 1
LOOKUP_TABLE default
  0.77327124390213997     
  0.69953489150150594     
  0.16136147694733349     
  0.53935233478871381     
  0.25144083181438204     
   3.9138232942477369E-002
   3.7942813803782303E-002
  0.65436681037486144     
  0.67567977371441357     
   7.4440123251831747E-002
  0.34648455774780845     
  0.90114293848146643     
  0.15850538201437125     
  0.96923527947460431     
  0.13412998946482585     
  0.32413778980655861     
  0.84272679192396516     
  0.95704119593637726     
  0.96906986803069595     
  0.79952020023722548     
  0.94317138598512917     
  0.33518164422302910     
  0.35143360585010175     
   4.9314085452559366E-002
   2.9731183754678460E-002
  0.32066558051162197     
  0.30039449272164936     
  0.37202131199669874     
  0.41054614965411823     
  0.10835384152449336     
   4.0001515720110757E-002
  0.95090645158015064     
  0.34061782156745962     
  0.81157595351854805     
  0.69098731989856732     
  0.86786288240544907     
  0.36596661759344284     
  0.91777501270333828     
  0.95153160745180798     
  0.97449711219403690     
  0.43220175743567235     
  0.60626306597769430     
  0.85928217122320383     
  0.87690027676077986     
  0.24095260058154452     
  0.88364078595140227     
  0.94424701962784086     
  0.41921597307921221     
  0.96213275088281613     
  0.22330705310138246     
  0.68212047751962812     
  0.34119150353003369     
  0.21622946556224082     
  0.32350440906861827     
  0.87462846331971711     
  0.85273923764290804     
  0.70038782271473554     
  0.21474995225435622     
  0.75106470430788275     
  0.54945919891719708     
  0.26272440693881344     
  0.66595076210855275     
  0.23727681550298826     
  0.95127734087522209     
  0.41976768407382364     
  0.93077798428583314     
  0.19366780887643739     
  0.12919160158918214     
  0.80687478912455946     
   8.0630361565876649E-002
   4.9489491856901976E-002
   4.5321980756955010E-002
  0.15036090191539864     
  0.44848543022925069     
  0.95715643183123644     
  0.56824922850488313     
  0.39629552223434084     
  0.76454798749534547     
  0.48349699463801527     
  0.41652972535907085     
  0.65846828424725667     
  0.81147884066428155     
   5.0487750988166942E-002
  0.26780647029116705     
  0.17230772513391071     
  0.49661924463709239     
  0.52119546790084303     
  0.17911089793150170     
  0.48627365015534230     
  0.40609552097433071     
  0.42697893146975202     
  0.95297753933138640     
  0.44299770543380185     
  0.82563671767848645     
   3.8474462221268019E-002
  0.10359418976990904     
  0.85646569569703124     
  0.62063405547106776     
  0.33195749448747336     
  0.80607849044869417     
  0.52455529881446317     
  0.96777606589578336     
  0.54863054972766923     
  0.40555623006531155     
   9.0699070749223898E-002
  0.89135518906449251     
  0.97017712647432097     
  0.41725770539967322     
  0.97012002921896467     
  0.19041637509695250     
  0.37979696989611356     
  0.71459457754591837     
   1.5613669097277768E-002
  0.51531150255412383     
  0.29643935707544522     
  0.90634135407921812     
  0.15175243140731640     
  0.74706229311184702     
  0.96379174833000403     
  0.27802903520453232     
  0.64755595304946312     
  0.76638511079337457     
  0.26130978759158008     
  0.74857192923475668     
  0.20268656834662369     
  0.68133187161254916     
  0.70331001174382501     
  0.65173652906353385     
  0.28131090950934995     
  0.41077523968144825     
  0.31783148571627817     
  0.24213711102608484     
  0.41635649996152385     
  0.80180129036793968     
  0.96515823734315387     
  0.71334515989273883     
  0.23220007740292459     
   4.6722340379573242E-002
  0.31848467315080525     
  0.73527347521414921     
  0.57486390715437641     
  0.18930989062860729     
  0.96702351903271777     
  0.20199428545227216     
  0.14480638348475455     
  0.12981309722120504     
  0.33901453523879538     
  0.90275745198216362     
  0.52195045120492323     
  0.45327075565713248     
  0.15435364172739613     
  0.97097504809078716     
  0.96549202532504919     
  0.26918531137494350     
  0.95192448749971825     
  0.76737657124423519     
  0.90818772543603343     
  0.25250688258334136     
  0.29674139491452373     
  0.88908922831566783     
  0.95147508758562915     
  0.12141737802404831     
  0.30561221723530330     
  0.53608681693718474     
  0.24745611554314417     
  0.98436848033028801     
  0.49125398273209470     
   4.8081785510650746E-002
  0.19930128208131473     
  0.96286141094309674     
  0.55948403524518087     
  0.42024507416648410     
  0.51936592646160040     
   3.5565994877930530E-002
  0.46213056406974418     
  0.46130164392052259     
  0.51183644943595508     
  0.93203317608234271     
   2.7911020207536233E-002
  0.35554417768300517     
  0.90621711704463492     
  0.87464287561058307     
  0.55370430338239340     
  0.77233771746340618     
  0.33579550808854414     
  0.85845910068737297     
  0.29541680691294658     
  0.57770348332354216     
  0.90159737440807985     
  0.52797701178991174     
  0.86442966230803719     
   5.8824581688510735E-002
   4.6402447023225199E-002
  0.37320632208040400     
  0.87861138379672077     
  0.27586288920222263     
  0.32972790037849964     
  0.40698263513026656     
  0.68791217723552900     
  0.72193509638902675     
  0.11003395121417855     
  0.67906483523992811     
  0.42992093364992656     
  0.83755306522725204     
  0.39026197174627308     
   4.3566099786631139E-002
   7.7741185878422756E-002
  0.23606513849973385     
  0.34824084457501048     
  0.35021626069478073     
   3.9077960725672600E-002
  0.74273498907895807     
  0.97304470769983409     
  0.61183805118821522     
  0.44931873742731682     
  0.23563536003980781     
  0.87004224316837342     
  0.58215118201749960     
  0.91399906178407830     
  0.16533344991691784     
  0.71907096151112937     
  0.26668693206941335     
  0.51179467713258520     
   1.5539902527816174E-002
  0.16249013653412056     
  0.66992622927244527     
   5.6723884639410707E-002
  0.42287203083196501     
   3.2396800377169396E-002
  0.94811592581717175     
  0.71572978166871348     
  0.51935551918739564     
  0.53722163481303709     
  0.62872188093274362     
  0.55676440074145073     
  0.10633937668123064     
  0.31250450897741450     
  0.63056837776334418     
  0.47605612299339184     
   9.0945331610998451E-002
  0.83453060183618988     
   3.2434206362772708E-002
  0.31453065949650322     
  0.80690578330334484     
  0.78711229064153032     
  0.42357567602133661     
  0.39233254128561240     
  0.44149971148901435     
   4.3027697103970239E-002
  0.33458510164469257     
  0.96369954374970423     
  0.90990902448437261     
   2.8545448071941693E-002
   3.1651941986948914E-002
  0.17168009267936318     
   2.6086990612381861E-002
  0.40806932895835429     
  0.33007011631051236     
  0.69754147544812617     
  0.33651357783306013     
  0.87082932546850600     
  0.20291366658531551     
  0.22437806464113166     
  0.25099843267085725     
   3.3440684295044536E-002
  0.10493617089546524     
  0.73525684179611017     
  0.15869657361265194     
  0.78585688507934115     
  0.95339606615798422     
  0.59265720624508800     
   2.5290602546308223E-002
  0.64426524711774769     
  0.76877106902564285     
  0.51220274048308156     
  0.78485413495312617     
  0.50492797307331860     
  0.71451226617658092     
  0.61279555897358762     
  0.33508102933903605     
  0.66096907111072500     
   3.2428555286790374E-002
   5.3729522625019260E-002
  0.29518064492379592     
  0.98106706057734383     
  0.94428502513200330     
  0.35062203654247287     
  0.36068557296330606     
   3.8460922013309772E-002
  0.68548635375749534     
  0.95450800213828824     
   2.5834837105662704E-002
  0.48409870936257071     
  0.93947634280266312     
  0.24259181199880353     
  0.42907440626137916     
  0.27678169859241086     
  0.33169203655897644     
  0.98436501816130650     
  0.64118775919978965     
  0.12489859496676067     
  0.16688371135138641     
  0.53013453168184599     
  0.93030789510890111     
  0.37945581473201034     
  0.40235156725865606     
  0.73745568180238397     
   5.3981619292522931E-002
  0.83418567948817413     
  0.97705182824209391     
  0.97804860930947712     
  0.14818148091723454     
   3.7446990663150874E-002
  0.48213854793668709     
  0.80520005941475892     
  0.46644443344477388     
  0.14003258539548213     
   1.5596344930667916E-002
  0.31217208672087388     
  0.22885270711146402     
  0.88991777433777741     
  0.88415616136465258     
   6.7545938466053723E-002
  0.42282583168258264     
   4.6372270766068986E-002
  0.64620414241410706     
  0.15200306877960837     
   5.0209874752926487E-002
  0.73962889339140658     
  0.77331007901909599     
  0.24502087377241524     
  0.59963031036764125     
  0.47801023210871652     
  0.97283936988096664     
  0.74751349837671344     
  0.68175988562078638     
   3.8135455086030355E-002
  0.20600164463938914     
  0.95576698906749813     
  0.43411984395848607     
  0.43408813531959023     
  0.35774168903302966     
  0.76864412479081190     
  0.53976848489765894     
  0.27628980255659946     
  0.11256612834886294     
  0.52866877258485800     
  0.44428382095388241     
  0.41017845274139647     
  0.67244689810425928     
  0.87941677334668733     
  0.88637670486068554     
  0.34628851924457738     
  0.25479433048515615     
  0.60062343437371346     
  0.19884570182537814     
  0.18926983433261380     
  0.98436620482274206     
  0.55126591518384715     
  0.60409654592874285     
  0.69023357568592836     
  0.22073792848344592     
  0.89409006757676424     
  0.27387969081831687     
  0.74096540276737055     
  0.56375508830375187     
  0.40204678099736946     
  0.77454434480768053     
  0.96980747008248924     
  0.66411440064532024     
  0.96982922174415609     
  0.36555247840291899     
  0.73223656466312870     
  0.54009497874429746     
  0.20852525961306481     
  0.88426303281603280     
  0.81004067002070246     
  0.71866741059147587     
  0.18112003199121571     
  0.70491524659273463     
  0.35981102901674183     
  0.83255394946036709     
  0.74007699583245667     
  0.86580413673054468     
  0.53605146852002639     
  0.23773297147243175     
  0.76793374483055954     
  0.73486839701558726     
  0.97302306223279078     
  0.95598250117225858     
  0.95153328111755886     
  0.17894104094857907     
  0.83081004707830597     
   5.5083837760050720E-002
  0.80669548817647163     
   4.5628195182120343E-002
  0.44779206568898938     
  0.76831940894194350     
  0.95194033975776904     
  0.37811869072004228     
  0.77349098161387220     
  0.98446706100663262     
  0.96053770542706596     
  0.61410075368324235     
   3.9824050413617681E-002
  0.12185714338808831     
  0.60118020732693966     
  0.78007860807242990     
  0.88810446320795389     
  0.71579208904665736     
  0.11852486512829470     
  0.31153861779630410     
  0.72640231014477630     
  0.28344645077522640     
  0.89489350029470349     
  0.72953385786379865     
   9.5538517316779301E-002
  0.40078835625431991     
   4.2522268153860135E-002
  0.71469475071185651     
  0.34687745398936976     
  0.39042229218965452     
  0.50460510372414291     
  0.12736450132532531     
  0.28916922074412704     
  0.38924030953163802     
  0.86356392966122608     
  0.53254978883014248     
   4.4133399010142613E-002
  0.94132798528229933     
   4.2297437323251662E-002
  0.15893934085291089     
  0.68892291795859317     
  0.16549524891782089     
  0.19526819309289914     
  0.90062329073378322     
   9.0518629199984477E-002
  0.50611562298649748     
  0.78904715949790283     
  0.86300162115036083     
   4.4760630324924930E-002
  0.56125144834856333     
  0.21995847224299636     
  0.30986629897611367     
  0.80778120931847053     
  0.12464737329927061     
  0.64280167890397910     
   4.3109019607073217E-002
  0.68086939613825792     
  0.75097211999771352     
  0.37017314813190683     
  0.18848940227362013     
  0.95174344087396090     
  0.41927051904036094     
  0.35927490302928500     
  0.90317406799396638     
  0.66422454568290645     
  0.87725814341939057     
   2.3544061062661683E-002
  0.75487633881310823     
  0.97444123444395703     
  0.16889212110989693     
  0.15546442077725217     
  0.59969360426776697     
  0.73220644213478991     
  0.45805650131389680     
  0.97093770584985439     
  0.23412544526260437     
  0.94804927714205356     
  0.32219959973264795     
  0.51943012683261469     
  0.70422462074707060     
   1.5605967593236606E-002
   4.1846812657519744E-002
  0.55577484939126953     
  0.95494279232586865     
  0.38075517751314308     
  0.39903880064314401     
  0.27382572949345635     
  0.63719472070352468     
  0.90459200450149613     
  0.61002362892068174     
  0.82473110992882959     
  0.42326856737367569     
   3.5171402822492454E-002
  0.22462018899570421     
  0.33012599767257378     
  0.64954811466618301     
  0.81863432449580165     
  0.62296296857538269     
  0.88747946455489313     
  0.41307136790423987     
  0.15514429465601803     
  0.61783740845541624     
   3.9164491892403959E-002
  0.87745327751243152     
  0.81816316565855740     
  0.14266800790533110     
  0.12766362957908226     
  0.60644101557595942     
  0.72698815259478422     
  0.72818448800688129     
  0.23641593982691769     
  0.95680421310719976     
  0.67353759327113905     
  0.87608248524569865     
  0.21337722072357226     
  0.18062001157174856     
  0.66689038188428240     
  0.55999237103729982     
  0.63328828662158665     
  0.69024611897249488     
  0.48532948271243553     
   2.2371180052369141E-002
  0.18862217543191698     
  0.93875339280688563     
   3.2836251865788223E-002
  0.96177250782818713     
  0.55264920368792447     
  0.32039984627059309     
  0.73071255348384190     
  0.12843015254405496     
  0.11733366020770782     
  0.50983346891786607     
  0.89303010499416902     
  0.94166499023649375     
  0.92749720028392801     
  0.19832205952679924     
   3.2462428259255674E-002
  0.96390064100517558     
  0.97388179801269692     
  0.74395015705803236     
   3.8966310385406322E-002
  0.45087408775198073     
  0.40534639490814328     
  0.52841693637835552     
  0.38037370792451380     
  0.56173281605480629     
  0.20468890332319781     
  0.46879948028533247     
  0.31514201755185223     
  0.90901519812041331     
  0.14924155511349213     
  0.81993423789804876     
   3.4864463308910881E-002
  0.66175967279774284     
  0.25006159212991835     
  0.69156371508412151     
  0.85409204411901785     
  0.77960596567873253     
  0.35563059494068167     
  0.88568596972861879     
   9.8108500722433878E-002
  0.31646618203370452     
  0.57291312107570214     
   2.5438698139133693E-002
  0.71526438058150721     
  0.37986283362470002     
  0.72074804185118913     
  0.79463540311776504     
  0.42719940682130064     
  0.51745739846806349     
  0.20104035241420970     
  0.22009591408381332     
   4.3520588380179942E-002
  0.34537190116773842     
  0.47912233861413051     
  0.93486671101774876     
  0.19150868711245922     
   2.5802727421687131E-002
   7.6269124122038984E-002
  0.76696739941415260     
  0.31993041636453917     
  0.24251688422371634     
  0.34133108121182454     
   8.9402960978763171E-002
  0.60709150187125049     
   2.2303065178984616E-002
  0.53919871883369908     
  0.47559253970435361     
   4.9934876351790072E-002
   2.5107102512238473E-002
  0.22159056753428380     
  0.67170823283688763     
  0.45340637801600558     
   3.0689733473373997E-002
  0.70705394233422469     
  0.90564482504207655     
  0.55971425445660683     
   3.1319635279305293E-002
   8.5110436692895738E-002
  0.42356270446344563     
  0.80319927707444139     
  0.65040752903264953     
   5.1687041514796028E-002
  0.83041455207677817     
  0.81950145701438482     
   4.8901921569069473E-002
   5.0050465233807066E-002
  0.22070519106405587     
  0.17227178215027145     
  0.29090543892163773     
  0.60856650820641434     
  0.67713609679369191     
  0.98049401510244272     
  0.78744859078319029     
  0.12629530628327637     
  0.57749792942543376     
  0.51186074423044625     
  0.12895421592664300     
  0.76564189667762472     
  0.10512493993931614     
  0.76436539687313676     
  0.45785009923405195     
  0.43412971486500590     
  0.46029328641904699     
  0.90974888919911834     
  0.90644061522344488     
  0.97838192686517356     
  0.96913288742196357     
  0.31672250654930623     
  0.87083128717751146     
  0.95222165967453420     
   9.5568354252885693E-002
  0.97040102085443347     
  0.80038218720024179     
  0.70870591899725888     
  0.45088869293597245     
   3.2015014303549701E-002
  0.66105238256969423     
  0.87825898372474265     
   3.6548917189384932E-002
  0.65746215284594356     
   5.1012112470192897E-002
   3.1404223654904237E-002
  0.57015327196866772     
  0.21364319562807385     
  0.88392655412456234     
  0.72749949745368903     
  0.43165013978177863     
  0.95237167658623956     
  0.22618305552374304     
  0.21596881372382762     
  0.29951398376857608     
  0.13325496925005900     
   3.9737584564063094E-002
  0.77313210759987117     
  0.46207532290334991     
  0.66348989070626696     
  0.14121925389218251     
  0.55288121422447023     
  0.13487604733040193     
  0.98121212391405321     
  0.95909819440271871     
  0.41936560566957759     
  0.95753848829962662     
  0.21959348472233434     
   6.1971457784852670E-002
  0.64496058356369690     
  0.75265633051620018     
  0.95608094374924057     
  0.43857820595939861     
  0.90028353573845166     
  0.57143585287716336     
  0.87382138696575240     
  0.97196227938388446     
  0.93538005744102815     
  0.46584302759680446     
  0.33508366667708722     
  0.45095613391641531     
  0.41038962283453295     
  0.47297698292994489     
  0.54866131947375962     
  0.29669733284763816     
  0.62648279632243431     
  0.96457451307928632     
  0.23779050765929019     
  0.85408120007975663     
  0.55553624920043709     
  0.26677055031793129     
  0.60839234665511921     
  0.96733847822603192     
  0.49826967196595096     
  0.96042627158984806     
  0.29844675571022566     
  0.86668945350806570     
  0.35495595108216671     
  0.68582630617589679     
  0.40850761000903640     
  0.46904422339095941     
  0.28181055632003815     
   4.3412074081923199E-002
  0.53780837532344827     
  0.96640843184814251     
   3.5644201987807107E-002
  0.79563220489855169     
   3.5550743430780948E-002
   3.0092865159847978E-002
  0.20443877713007347     
  0.55464157841989703     
  0.54229598708117421     
   3.8339779462776676E-002
   9.2635725877399197E-002
  0.16633774110832708     
  0.75034798133970726     
  0.44313970064500585     
  0.21084215978454879     
  0.30524767844049577     
  0.11694721050706361     
  0.76028372229004637     
   5.3801230825206728E-002
  0.19068737178404122     
  0.67223052639050596     
  0.27079488333369950     
  0.40462057835945003     
  0.48471955591569049     
  0.68200923902524802     
  0.22785108358460779     
  0.33342163338422770     
  0.14748518526641788     
  0.83614935694751158     
  0.61883110728441382     
  0.58642114538828982     
   4.5062576302217335E-002
  0.96202503917176518     
  0.81428017479887471     
  0.74471926429797441     
  0.94983889262731946     
  0.23386700899021592     
  0.62179595864662474     
   2.7132166206455227E-002
  0.83599529382970861     
  0.39625061501541631     
  0.29376242951430143     
  0.61979835089758883     
  0.94798118681128107     
  0.93043041960636463     
  0.55736734629942486     