# vtk DataFile Version 3.0
Unstructured Grid
ASCII
DATASET UNSTRUCTURED_GRID
POINTS      4550 double
   0.0000000000000000        0.0000000000000000        0.0000000000000000     
   0.0000000000000000        0.0000000000000000        3.1250000000000000E-002
   0.0000000000000000        0.0000000000000000        6.2500000000000000E-002
   0.0000000000000000        0.0000000000000000        9.3750000000000000E-002
   0.0000000000000000        0.0000000000000000       0.12500000000000000     
   0.0000000000000000        0.0000000000000000       0.15625000000000000     
   0.0000000000000000        0.0000000000000000       0.18750000000000000     
   0.0000000000000000        0.0000000000000000       0.21875000000000000     
   0.0000000000000000        0.0000000000000000       0.25000000000000000     
   0.0000000000000000        0.0000000000000000       0.28125000000000000     
   0.0000000000000000        0.0000000000000000       0.31250000000000000     
   0.0000000000000000        0.0000000000000000       0.34375000000000000     
   0.0000000000000000        0.0000000000000000       0.37500000000000000     
   0.0000000000000000        0.0000000000000000       0.40625000000000000     
   0.0000000000000000        0.0000000000000000       0.43750000000000000     
   0.0000000000000000        0.0000000000000000       0.46875000000000000     
   0.0000000000000000        0.0000000000000000       0.50000000000000000     
   0.0000000000000000        0.0000000000000000       0.53125000000000000     
   0.0000000000000000        0.0000000000000000       0.56250000000000000     
   0.0000000000000000        0.0000000000000000       0.59375000000000000     
   0.0000000000000000        0.0000000000000000       0.62500000000000000     
   0.0000000000000000        0.0000000000000000       0.65625000000000000     
   0.0000000000000000        0.0000000000000000       0.68750000000000000     
   0.0000000000000000        0.0000000000000000       0.71875000000000000     
   0.0000000000000000        0.0000000000000000       0.75000000000000000     
   0.0000000000000000        0.0000000000000000       0.78125000000000000     
   0.0000000000000000        0.0000000000000000       0.81250000000000000     
   0.0000000000000000        0.0000000000000000       0.84375000000000000     
   0.0000000000000000        0.0000000000000000       0.87500000000000000     
   0.0000000000000000        0.0000000000000000       0.90625000000000000     
   0.0000000000000000        0.0000000000000000       0.93750000000000000     
   0.0000000000000000        0.0000000000000000       0.96875000000000000     
   0.0000000000000000        0.0000000000000000        1.0000000000000000     
   0.0000000000000000        3.1250000000000000E-002   0.0000000000000000     
   0.0000000000000000        3.1250000000000000E-002   1.0000000000000000     
   0.0000000000000000        4.2405763908650258E-002  0.66130451259029932     
   0.0000000000000000        4.3217879046206449E-002  0.14760011926069846     
   0.0000000000000000        4.6024266659168159E-002  0.44206785664549769     
   0.0000000000000000        4.6024266659168159E-002  0.52668214335450225     
   0.0000000000000000        5.0942866059175335E-002  0.10420737699075047     
   0.0000000000000000        5.2217891062431979E-002   5.2217891062431979E-002
   0.0000000000000000        5.2761163692563604E-002  0.38171595438393841     
   0.0000000000000000        5.5068963296708517E-002  0.59134852187332609     
   0.0000000000000000        5.6120114733671470E-002  0.75604724093930309     
   0.0000000000000000        5.6324478455296215E-002  0.24577786591727294     
   0.0000000000000000        5.7363532779538949E-002  0.87371196899699510     
   0.0000000000000000        5.7470675736370332E-002  0.18930699270579771     
   0.0000000000000000        5.8263363642804059E-002  0.81429895566577748     
   0.0000000000000000        6.0887870516095753E-002  0.69980397551580908     
   0.0000000000000000        6.2500000000000000E-002   0.0000000000000000     
   0.0000000000000000        6.2500000000000000E-002   1.0000000000000000     
   0.0000000000000000        6.4711269014538775E-002  0.48437500000000000     
   0.0000000000000000        6.9225209415320288E-002  0.33114145848017668     
   0.0000000000000000        7.0413861272891454E-002  0.92958613872710860     
   0.0000000000000000        7.9770917049368548E-002  0.64062500000000000     
   0.0000000000000000        8.3926071099233085E-002  0.28526314383622647     
   0.0000000000000000        8.7633724434323254E-002  0.42187500000000000     
   0.0000000000000000        8.7633724434323254E-002  0.54687500000000000     
   0.0000000000000000        8.8068181818181823E-002  0.14062500000000000     
   0.0000000000000000        9.3750000000000000E-002   0.0000000000000000     
   0.0000000000000000        9.3750000000000000E-002   1.0000000000000000     
   0.0000000000000000       0.10119805731737391       0.89303091974927329     
   0.0000000000000000       0.10210219776924923        7.0764746741824577E-002
   0.0000000000000000       0.10635988421955403       0.21957230430375799     
   0.0000000000000000       0.10740857139383649       0.84564547603995810     
   0.0000000000000000       0.10786461042496739       0.46474837701534855     
   0.0000000000000000       0.10968401176898811       0.73824428233438488     
   0.0000000000000000       0.10969220020645358       0.95550186482507926     
   0.0000000000000000       0.11544264275928678       0.79209098776725284     
   0.0000000000000000       0.11808901360852578       0.59663401005457384     
   0.0000000000000000       0.12041430467853043       0.67800854775312602     
   0.0000000000000000       0.12335307882294175       0.17407035117359601     
   0.0000000000000000       0.12500000000000000        0.0000000000000000     
   0.0000000000000000       0.12500000000000000        1.0000000000000000     
   0.0000000000000000       0.13002446100559079       0.36656116971438985     
   0.0000000000000000       0.13068181818181818       0.29687500000000000     
   0.0000000000000000       0.13145794935938171       0.52792875194736344     
   0.0000000000000000       0.13152145848091723       0.25413323966508028     
   0.0000000000000000       0.14029998073959937       0.12855113636363635     
   0.0000000000000000       0.14062500000000000       0.92003956561172884     
   0.0000000000000000       0.14354289369273243        4.6375564186635417E-002
   0.0000000000000000       0.14789203175728108       0.42415466219925380     
   0.0000000000000000       0.15101795183539601       0.48437500000000000     
   0.0000000000000000       0.15625000000000000        0.0000000000000000     
   0.0000000000000000       0.15625000000000000        1.0000000000000000     
   0.0000000000000000       0.15812483216952217       0.81572518579617204     
   0.0000000000000000       0.16016925006360749       0.76155969044955663     
   0.0000000000000000       0.16105769230769232       0.64062500000000000     
   0.0000000000000000       0.16498033923188599       0.56192540447066308     
   0.0000000000000000       0.16681364204580570       0.86373403073390376     
   0.0000000000000000       0.16773736985982415       0.70646802951986931     
   0.0000000000000000       0.17187500000000000        8.5227272727272721E-002
   0.0000000000000000       0.17187500000000000       0.17187500000000000     
   0.0000000000000000       0.17230065023518384       0.24130278401345417     
   0.0000000000000000       0.17524993035964637       0.33214160114056268     
   0.0000000000000000       0.17536724190152050       0.95339263300749488     
   0.0000000000000000       0.18456495164560949       0.51836722168265548     
   0.0000000000000000       0.18672094257804892       0.28630188376875909     
   0.0000000000000000       0.18750000000000000        0.0000000000000000     
   0.0000000000000000       0.18750000000000000        1.0000000000000000     
   0.0000000000000000       0.19182611979586967        4.4839049992879139E-002
   0.0000000000000000       0.19736660067068895       0.38449523208871811     
   0.0000000000000000       0.19991704497100604       0.20641827567287876     
   0.0000000000000000       0.20249993440656938       0.12855113636363635     
   0.0000000000000000       0.20312500000000000       0.79687500000000000     
   0.0000000000000000       0.20592650903014437       0.91616923083075008     
   0.0000000000000000       0.20708080019865122       0.60347138662486799     
   0.0000000000000000       0.20881174380662740       0.45118373807264039     
   0.0000000000000000       0.21148737705495707       0.74054376865132920     
   0.0000000000000000       0.21407117136637366       0.65921232651476624     
   0.0000000000000000       0.21875000000000000        0.0000000000000000     
   0.0000000000000000       0.21875000000000000        1.0000000000000000     
   0.0000000000000000       0.22621916310275669       0.26036437453168837     
   0.0000000000000000       0.22693109923009044       0.84817608833212677     
   0.0000000000000000       0.22934361368355521       0.53497275561808477     
   0.0000000000000000       0.23291828960141181        6.3296820644412860E-002
   0.0000000000000000       0.23549788065273725       0.32831789642150322     
   0.0000000000000000       0.24440883944936315       0.20614550385605404     
   0.0000000000000000       0.25000000000000000        0.0000000000000000     
   0.0000000000000000       0.25000000000000000        1.0000000000000000     
   0.0000000000000000       0.25308036536593070       0.69963757175059260     
   0.0000000000000000       0.25433452960858166       0.94422008612362063     
   0.0000000000000000       0.25438783372307811       0.39434016470855998     
   0.0000000000000000       0.25455601108832415       0.63866292690521120     
   0.0000000000000000       0.25542104790070941       0.12478291206971995     
[...]
CELL_DATA     20981
SCALARS pressure double 1
LOOKUP_TABLE default
  0.77333610065003677     
  0.69960896844167786     
  0.16162669101112931     
  0.53950066365862681     
  0.25167710679090766     
   3.9178852086601205E-002
   3.7963492940184182E-002
  0.65449435893725272     
  0.67575858026401381     
   7.4484524095216290E-002
  0.34659351592972937     
  0.90117123182402770     
  0.15864054088118634     
  0.96924341119979218     
  0.13432171092158257     
  0.32456884799638280     
  0.84271386130181236     
  0.95705388680122649     
  0.96893032424219439     
  0.79863570124733618     
  0.94310555676797880     
  0.33570325794901673     
  0.35189208226084551     
   4.9343150816551544E-002
   2.9767816479917095E-002
  0.32076847512035839     
  0.30068247450006447     
  0.37214586494979274     
  0.41069372838841278     
  0.10853911112517367     
   4.0047867964617533E-002
  0.95089770400728735     
  0.34160756150429911     
  0.81159554309668358     
  0.69108720101624843     
  0.86710637870845997     
  0.36706345338014085     
  0.91779731594337111     
  0.95154506563567010     
  0.97450494573243174     
  0.43267187411610875     
  0.60644443230880873     
  0.85932046837494025     
  0.87625856162191129     
  0.24140937357780096     
  0.88367004719013764     
  0.94426107452413466     
  0.41938871237362241     
  0.96206493110863078     
  0.22361838647605628     
  0.68222901187467799     
  0.34141333715090788     
  0.21655479280717316     
  0.32365881641787353     
  0.87462538434711656     
  0.85186887987501425     
  0.70049417041171902     
  0.21486715487379146     
  0.75109914508278797     
  0.54957805333883913     
  0.26284221492966020     
  0.66605587952997525     
  0.23778719785030561     
  0.95129224232338672     
  0.42030280253835800     
  0.93053325051430724     
  0.19399827435665534     
  0.12928692371500269     
  0.80567750215963163     
   8.0685368096524754E-002
   4.9577694454856075E-002
   4.5400467614028980E-002
  0.15066551901423281     
  0.44904870035983635     
  0.95707068158836006     
  0.56840753894520823     
  0.39644236756049378     
  0.76385865373058237     
  0.48426709587521682     
  0.41691726132543633     
  0.65855136584511376     
  0.81095272627763193     
   5.0534076827018146E-002
  0.26830944379607674     
  0.17263132454883001     
  0.49695579488383224     
  0.52133868765340186     
  0.17923500131206518     
  0.48658588897005278     
  0.40633299020518054     
  0.42736152428747171     
  0.95298706145693401     
  0.44332272086275976     
  0.82520694156995000     
   3.8545240441668120E-002
  0.10376240301715640     
  0.85648223894551967     
  0.62079371822360607     
  0.33228905684129795     
  0.80609179677425491     
  0.52485329931061664     
  0.96776713950898985     
  0.54992317828862558     
  0.40593618753982619     
   9.0848918745217722E-002
  0.89138826252082970     
  0.97016595931020089     
  0.41739050116403370     
  0.97012617187591066     
  0.19050920614051597     
  0.37996980386528645     
  0.71252807040615196     
   1.5618804686247333E-002
  0.51544933953506844     
  0.29659298723496441     
  0.90632059518562980     
  0.15202478608716327     
  0.74714140768672221     
  0.96378918910868627     
  0.27867355069496003     
  0.64768862635226188     
  0.76533809156932220     
  0.26142612998130654     
  0.74864212722062828     
  0.20280511238397023     
  0.68148174238701931     
  0.70340736825373329     
  0.65185405760286164     
  0.28141797865768875     
  0.41089088350527697     
  0.31853505349070188     
  0.24245672828256953     
  0.41653969162474702     
  0.80186014023641372     
  0.96514101817150078     
  0.71342186537017227     
  0.23234174822104101     
   4.6748480936198634E-002
  0.31910801175833137     
  0.73535491521210961     
  0.57489006346479621     
  0.18964847180990418     
  0.96689534836396307     
  0.20236254379065644     
  0.14485469370348208     
  0.13003603087164767     
  0.33913540564766137     
  0.90278761468659674     
  0.52207197598681532     
  0.45348477037725954     
  0.15457054311151361     
  0.97096449625259817     
  0.96544442083374593     
  0.26926608625178211     
  0.95193890806000614     
  0.76714193816415310     
  0.90820751900966357     
  0.25286998602851124     
  0.29736298650154641     
  0.88905296157145097     
  0.95142816498342697     
  0.12153964481631735     
  0.30582518756176708     
  0.53642061505565719     
  0.24764429240377556     
  0.98437262793618696     
  0.49253507621621945     
   4.8130237269269599E-002
  0.19941789551224534     
  0.96287120888889355     
  0.55962515994832129     
  0.42059809238273727     
  0.51976118075660571     
   3.5588644220983581E-002
  0.46245768630234207     
  0.46139936357883848     
  0.51198054700519235     
  0.93205359042086655     
   2.7926363872504547E-002
  0.35567388471330380     
  0.90624438430818588     
  0.87408839378763925     
  0.55380032612851315     
  0.77241498078223803     
  0.33601810771555679     
  0.85798654508403571     
  0.29580807836496248     
  0.58777279093488255     
  0.90125152667536368     
  0.52848001318099569     
  0.86446851062852093     
   5.8862236831859718E-002
   4.6449716157034311E-002
  0.37427684541635248     
  0.87855965744897158     
  0.27602724894531167     
  0.33013512104663251     
  0.40712270854092020     
  0.68778051149411479     
  0.72201696024666118     
  0.11008872502474212     
  0.67918777095115224     
  0.43038619919606413     
  0.83701945337631134     
  0.39039821236052275     
   4.3590172404869253E-002
   7.7769086327512976E-002
  0.23619816045670727     
  0.34873351419391108     
  0.35044032273511622     
   3.9142424549922963E-002
  0.74281793470528112     
  0.97305218753787315     
  0.61241444521968469     
  0.44949759790459165     
  0.23599601564781736     
  0.87008271494785105     
  0.58230616181717865     
  0.91401482650578170     
  0.16561483911385005     
  0.71916200002194874     
  0.26713819815416995     
  0.51194721446238989     
   1.5565320102319341E-002
  0.16257870797324434     
  0.67003073672934332     
   5.6822039109122660E-002
  0.42305163583069888     
   3.2450620626617417E-002
  0.94813048777384001     
  0.71573736749718220     
  0.51984511462693583     
  0.53747601126555222     
  0.62883403104934077     
  0.55686161542090862     
  0.10639558900260261     
  0.31265699859957458     
  0.63073276332416917     
  0.47666650282423034     
   9.1108921324373926E-002
  0.83347501473622054     
   3.2453468553357220E-002
  0.31494855309815556     
  0.80696380189490002     
  0.78718018017340763     
  0.42372337714648162     
  0.39321689858728670     
  0.44171866307117685     
   4.3067613165208199E-002
  0.33467330757689834     
  0.96364025884624371     
  0.90975867099629837     
   2.8560881624266930E-002
   3.1668992264680000E-002
  0.17176632063288499     
   2.6129220106054441E-002
  0.40822107821323544     
  0.33050199660640622     
  0.69763257367975173     
  0.33667532333056571     
  0.87044705184599491     
  0.20305912166505080     
  0.22479852425599464     
  0.25109328983342877     
   3.3488365921616567E-002
  0.10510536583992666     
  0.73533869015261588     
  0.15878387011052819     
  0.78584867606970010     
  0.95340389852417717     
  0.59256530095203419     
   2.5299567318200076E-002
  0.64437868831538947     
  0.76827415458359960     
  0.51241767700839513     
  0.78395327772864787     
  0.50639120968099760     
  0.71400751742095014     
  0.61295893471771690     
  0.33524256037192685     
  0.66107567701992309     
   3.2440679159839510E-002
   5.3757197780053327E-002
  0.29579164984263207     
  0.98107275294160479     
  0.94429923589717868     
  0.35122289857097055     
  0.36084513567001469     
   3.8524015746615986E-002
  0.68367699611637145     
  0.95452002750433496     
   2.5875436306802772E-002
  0.48430367954631731     
  0.93945711824846179     
  0.24271923324560196     
  0.42924541290631957     
  0.27687333585314955     
  0.33216256997021176     
  0.98436906435321170     
  0.64188960106698045     
  0.12506237631517883     
  0.16714958379394210     
  0.53118986924698131     
  0.93032899740376696     
  0.37965799665856087     
  0.40253873771952997     
  0.73698088196546152     
   5.4004343707637785E-002
  0.83415738660250549     
  0.97705842718396174     
  0.97805453514111351     
  0.14826909074509179     
   3.7471402493343547E-002
  0.48232485301158184     
  0.80525099666553668     
  0.46708192883396593     
  0.14016556572433922     
   1.5606312453140552E-002
  0.31229092288648269     
  0.22896280432166177     
  0.88945150002613571     
  0.88368685000299174     
   6.7579793219180714E-002
  0.42327066464496271     
   4.6400695722078923E-002
  0.64635085521758140     
  0.15217291670576888     
   5.0252454099668685E-002
  0.73964033732073553     
  0.77082304318783412     
  0.24522585176954872     
  0.60240796829134069     
  0.47837585558838791     
  0.97273657067766006     
  0.74758462389461722     
  0.68187329315412692     
   3.8148175304639473E-002
  0.20639648142401215     
  0.95560085957134488     
  0.43422348745591743     
  0.43440558453275407     
  0.35814865686348546     
  0.76871158005006424     
  0.53988270591313359     
  0.27652649007693775     
  0.11272823934764924     
  0.52910102254485913     
  0.44443011037513436     
  0.41084444380235241     
  0.67261394047625600     
  0.87900252362126874     
  0.88632977727828666     
  0.34645380154181316     
  0.25498677292895128     
  0.60079669506637756     
  0.19896441364943146     
  0.18965736465777092     
  0.98437044931184303     
  0.55142485690801202     
  0.60429454782027725     
  0.69033498656791858     
  0.22085733629098181     
  0.89411772227002062     
  0.27451167143772004     
  0.74104019318490955     
  0.56392791189790969     
  0.40225418375785010     
  0.77461347883711873     
  0.96969865888705886     
  0.66422448921448840     
  0.96983722714067544     
  0.36569991417837328     
  0.73231920384679805     
  0.54030575668061342     
  0.20860197923096627     
  0.88428599353722859     
  0.81009656692422494     
  0.71875024437040824     
  0.18125861176479147     
  0.70500347052430490     
  0.36005592103019779     
  0.83254181471013988     
  0.74015865996331554     
  0.86584342514030466     
  0.53731189025160986     
  0.23782409434448276     
  0.76800488963743185     
  0.73493847280386670     
  0.97302192530272424     
  0.95599342930473785     
  0.95154655481143247     
  0.17931567304514198     
  0.82970629725776346     
   5.5175729059551919E-002
  0.80674908593522465     
   4.5652519846765986E-002
  0.44795921696109953     
  0.76780086865186759     
  0.95195323975166746     
  0.37857139230361087     
  0.77356437398610789     
  0.98441937378131050     
  0.96054525960148673     
  0.61386840410851107     
   3.9849556211970671E-002
  0.12208343354044258     
  0.60135480963534949     
  0.78001454428774164     
  0.88802898325897661     
  0.71586824209356248     
  0.11875610363487604     
  0.31174180266917811     
  0.72602697602792765     
  0.28358558056308469     
  0.89453069167522559     
  0.72962234497399847     
   9.5601044960843901E-002
  0.40105629686345790     
   4.2578325128983803E-002
  0.71353415767434225     
  0.34728813577251072     
  0.39051592220831999     
  0.50473649436664036     
  0.12745066975503480     
  0.28932287099177734     
  0.38991931073504404     
  0.86360347853812447     
  0.53264956962492871     
   4.4183644355103933E-002
  0.94116715056172684     
   4.2320936586755259E-002
  0.15924551468992759     
  0.68898724107908949     
  0.16582264419190326     
  0.19567612478993920     
  0.90064655420718098     
   9.0668167641230493E-002
  0.50631830250194365     
  0.78794642236660439     
  0.86299940215905158     
   4.4780979931304005E-002
  0.56152532613682893     
  0.22007011260332943     
  0.31063493868378922     
  0.80784091301320859     
  0.12485356253463367     
  0.64294967862019325     
   4.3168504997997251E-002
  0.68096546591095286     
  0.75105508658235665     
  0.37031638835162722     
  0.18857920325015254     
  0.95158517853362967     
  0.41954486075280828     
  0.35941072343394809     
  0.90320181672652655     
  0.66433018248884246     
  0.87727322117958395     
   2.3556375487230573E-002
  0.75487300391339240     
  0.97444871506347464     
  0.16897124263328114     
  0.15552401952502301     
  0.59984014278361020     
  0.73228065701627809     
  0.45898182642016616     
  0.97094371458795403     
  0.23423596614312125     
  0.94805437026613015     
  0.32258186187009008     
  0.51957992425395561     
  0.70403306925330278     
   1.5614374220603633E-002
   4.1879672842947392E-002
  0.56355863921806415     
  0.95495037372331193     
  0.38090241098366007     
  0.39987351890657685     
  0.27422834113199551     
  0.63732707900487184     
  0.90460413147416208     
  0.61014518354344438     
  0.82478108680852813     
  0.42341696185974459     
   3.5190532062428587E-002
  0.22487036726130505     
  0.33027686149647478     
  0.64966498766571079     
  0.81868861691400674     
  0.62273132906340678     
  0.88750642820173609     
  0.41329631845629095     
  0.15529926118799980     
  0.61658238870963156     
   3.9220573792843522E-002
  0.87748004113900835     
  0.81820951858594226     
  0.14271653297376610     
  0.12771689091020455     
  0.60658726164460386     
  0.72707598671658902     
  0.72824079227633964     
  0.23649150061336660     
  0.95670246920981805     
  0.67363808367462152     
  0.87573232989828831     
  0.21372829113568059     
  0.18071756567652783     
  0.66700539654989699     
  0.56016387395859801     
  0.63339282105352368     
  0.69038220226716929     
  0.48543395725129557     
   2.2380966881518895E-002
  0.18871201959298811     
  0.93875223013237008     
   3.2851051274393431E-002
  0.96178361659343481     
  0.55279015084483607     
  0.32060015517473839     
  0.73079332548432907     
  0.12849665840737973     
  0.11740524852326115     
  0.51081595994657469     
  0.89301361904234489     
  0.94167173944849181     
  0.92751907797764710     
  0.19865268844200204     
   3.2477260646008241E-002
  0.96388323303079260     
  0.97384705956193929     
  0.74020470393642313     
   3.9002637701126115E-002
  0.45241910822113129     
  0.40587590882824359     
  0.52890716871271115     
  0.38079067635596026     
  0.56212895881681191     
  0.20479899945340796     
  0.46984050193912752     
  0.31527959112201448     
  0.90902694001678774     
  0.14944151341900727     
  0.81999139353547690     
   3.4923329868674406E-002
  0.66132690270255545     
  0.25035377021587479     
  0.69164569912284268     
  0.85413131166466305     
  0.77966208034672024     
  0.35581465779351129     
  0.88489914876396059     
   9.8153452532861230E-002
  0.31705359203384859     
  0.57300621870662027     
   2.5454690281382773E-002
  0.71290941516650985     
  0.38032322523529682     
  0.72082321038693320     
  0.79331788481950283     
  0.42741724294596944     
  0.51765157887929447     
  0.20118516673253800     
  0.22019077394628633     
   4.3601537947628291E-002
  0.34547542949741050     
  0.47933870263257727     
  0.93487293444545405     
  0.19180050851472019     
   2.5811708175145321E-002
   7.6306327160892987E-002
  0.76704258804410796     
  0.32027660804177815     
  0.24264363057934721     
  0.34162215121385181     
   8.9434952837135651E-002
  0.60723321466171187     
   2.2317247646700056E-002
  0.53938858454977345     
  0.47573685821149314     
   5.0011608284658594E-002
   2.5123086653693796E-002
  0.22199752233667852     
  0.67178729030186768     
  0.45372618529010822     
   3.0706333275944107E-002
  0.70712656119109663     
  0.90556589628400763     
  0.55971534449817517     
   3.1350914235399784E-002
   8.5145562298278230E-002
  0.42370644491506770     
  0.80315381747584125     
  0.65050440240559115     
   5.1715189031253390E-002
  0.83046800342920135     
  0.81876925756369334     
   4.8970940515555270E-002
   5.0135143598504496E-002
  0.22102644171669278     
  0.17258924811917573     
  0.29109562910266418     
  0.60866866125539787     
  0.67725084675926661     
  0.98048993713129673     
  0.78661725597044285     
  0.12653379237214568     
  0.57763657512194488     
  0.51199321921128615     
  0.12900024457702683     
  0.76571862684999570     
  0.10528903568085644     
  0.76269879215779246     
  0.45818709051214579     
  0.43422643315316251     
  0.46068639767481312     
  0.90977237589807680     
  0.90613251615348966     
  0.97838817089418884     
  0.96914208647805289     
  0.31718484997790153     
  0.87046999810684489     
  0.95223487375819493     
   9.5643036838963510E-002
  0.97040425365304961     
  0.80028127590919862     
  0.70815084237530868     
  0.45109675237878655     
   3.2040264322882421E-002
  0.66119647449743413     
  0.87829342629373897     
   3.6609178483278861E-002
  0.65750772084386877     
   5.1033831682627061E-002
   3.1453195105128458E-002
  0.57203247370379173     
  0.21374557073374692     
  0.88395592622222885     
  0.72702633775201009     
  0.43192356617807770     
  0.95236734970961889     
  0.22662715807097661     
  0.21629178249228034     
  0.29959685141865056     
  0.13350582694973170     
   3.9759033945838809E-002
  0.77308038216359376     
  0.46271635834709490     
  0.66359387302735007     
  0.14132531726033642     
  0.55638859649370032     
  0.13511219673557284     
  0.98121761422629239     
  0.95909163160505506     
  0.41953963475914097     
  0.95755139215764107     
  0.21970512529042124     
   6.2075118462770716E-002
  0.64505573551685524     
  0.75273857142486167     
  0.95609358987936999     
  0.43880815519411653     
  0.89998631672593954     
  0.57159251919346143     
  0.87312079379811003     
  0.97196989472375750     
  0.93539839120515444     
  0.46620111229710048     
  0.33517693254378256     
  0.45132695590107741     
  0.41078987280873902     
  0.47312672733759442     
  0.54877982618468424     
  0.29677878943087260     
  0.62660552384735280     
  0.96457842233881119     
  0.23827390457006578     
  0.85378370987333674     
  0.55633617496835130     
  0.26703766811148838     
  0.60881052632522492     
  0.96734807989025562     
  0.49867251697291515     
  0.96043801965302045     
  0.29883943560782905     
  0.86672850555930447     
  0.35593697946061892     
  0.68311344231908122     
  0.40888034487427577     
  0.46919954055032453     
  0.28208365311705874     
   4.3437990780041874E-002
  0.53801935047589045     
  0.96641556533231654     
   3.5692500617485551E-002
  0.79538170143454134     
   3.5570540765248501E-002
   3.0112596486333278E-002
  0.20464459411595323     
  0.55498631604298410     
  0.54274679635040990     
   3.8365437220309259E-002
   9.2817148805717758E-002
  0.16666728613222201     
  0.75042715619507383     
  0.44507817967045532     
  0.21097601932541757     
  0.30547011509466659     
  0.11710543745285810     
  0.76035064191011048     
   5.3894451600841706E-002
  0.19086244901067190     
  0.67169723352891342     
  0.27105500906283664     
  0.40512934592971811     
  0.48490611583450988     
  0.68212566183382473     
  0.22796069115136250     
  0.33394396905378992     
  0.14764113218970970     
  0.83617885730855268     
  0.62107032578110066     
  0.58607178644717151     
   4.5084254419511499E-002
  0.96203631279998836     
  0.81433177013859703     
  0.74479010874386598     
  0.94985265880004432     
  0.23425132902330240     
  0.62060544930364581     
   2.7171768475888165E-002
  0.83587697786504467     
  0.39714236667312974     
  0.29392173050294446     
  0.62016793692526118     
  0.94770607090762327     
  0.93041400638969729     
  0.55748504492874873     