# vtk DataFile Version 3.0
Unstructured Grid
ASCII
DATASET UNSTRUCTURED_GRID
POINTS      4550 double
   0.0000000000000000        0.0000000000000000        0.0000000000000000     
   0.0000000000000000        0.0000000000000000        3.1250000000000000E-002
   0.0000000000000000        0.0000000000000000        6.2500000000000000E-002
   0.0000000000000000        0.0000000000000000        9.3750000000000000E-002
   0.0000000000000000        0.0000000000000000       0.12500000000000000     
   0.0000000000000000        0.0000000000000000       0.15625000000000000     
   0.0000000000000000        0.0000000000000000       0.18750000000000000     
   0.0000000000000000        0.0000000000000000       0.21875000000000000     
   0.0000000000000000        0.0000000000000000       0.25000000000000000     
   0.0000000000000000        0.0000000000000000       0.28125000000000000     
   0.0000000000000000        0.0000000000000000       0.31250000000000000     
   0.0000000000000000        0.0000000000000000       0.34375000000000000     
   0.0000000000000000        0.0000000000000000       0.37500000000000000     
   0.0000000000000000        0.0000000000000000       0.40625000000000000     
   0.0000000000000000        0.0000000000000000       0.43750000000000000     
   0.0000000000000000        0.0000000000000000       0.46875000000000000     
   0.0000000000000000        0.0000000000000000       0.50000000000000000     
   0.0000000000000000        0.0000000000000000       0.53125000000000000     
   0.0000000000000000        0.0000000000000000       0.56250000000000000     
   0.0000000000000000        0.0000000000000000       0.59375000000000000     
   0.0000000000000000        0.0000000000000000       0.62500000000000000     
   0.0000000000000000        0.0000000000000000       0.65625000000000000     
   0.0000000000000000        0.0000000000000000       0.68750000000000000     
   0.0000000000000000        0.0000000000000000       0.71875000000000000     
   0.0000000000000000        0.0000000000000000       0.75000000000000000     
   0.0000000000000000        0.0000000000000000       0.78125000000000000     
   0.0000000000000000        0.0000000000000000       0.81250000000000000     
   0.0000000000000000        0.0000000000000000       0.84375000000000000     
   0.0000000000000000        0.0000000000000000       0.87500000000000000     
   0.0000000000000000        0.0000000000000000       0.90625000000000000     
   0.0000000000000000        0.0000000000000000       0.93750000000000000     
   0.0000000000000000        0.0000000000000000       0.96875000000000000     
   0.0000000000000000        0.0000000000000000        1.0000000000000000     
   0.0000000000000000        3.1250000000000000E-002   0.0000000000000000     
   0.0000000000000000        3.1250000000000000E-002   1.0000000000000000     
   0.0000000000000000        4.2405763908650258E-002  0.66130451259029932     
   0.0000000000000000        4.3217879046206449E-002  0.14760011926069846     
   0.0000000000000000        4.6024266659168159E-002  0.44206785664549769     
   0.0000000000000000        4.6024266659168159E-002  0.52668214335450225     
   0.0000000000000000        5.0942866059175335E-002  0.10420737699075047     
   0.0000000000000000        5.2217891062431979E-002   5.2217891062431979E-002
   0.0000000000000000        5.2761163692563604E-002  0.38171595438393841     
   0.0000000000000000        5.5068963296708517E-002  0.59134852187332609     
   0.0000000000000000        5.6120114733671470E-002  0.75604724093930309     
   0.0000000000000000        5.6324478455296215E-002  0.24577786591727294     
   0.0000000000000000        5.7363532779538949E-002  0.87371196899699510     
   0.0000000000000000        5.7470675736370332E-002  0.18930699270579771     
   0.0000000000000000        5.8263363642804059E-002  0.81429895566577748     
   0.0000000000000000        6.0887870516095753E-002  0.69980397551580908     
   0.0000000000000000        6.2500000000000000E-002   0.0000000000000000     
   0.0000000000000000        6.2500000000000000E-002   1.0000000000000000     
   0.0000000000000000        6.4711269014538775E-002  0.48437500000000000     
   0.0000000000000000        6.9225209415320288E-002  0.33114145848017668     
   0.0000000000000000        7.0413861272891454E-002  0.92958613872710860     
   0.0000000000000000        7.9770917049368548E-002  0.64062500000000000     
   0.0000000000000000        8.3926071099233085E-002  0.28526314383622647     
   0.0000000000000000        8.7633724434323254E-002  0.42187500000000000     
   0.0000000000000000        8.7633724434323254E-002  0.54687500000000000     
   0.0000000000000000        8.8068181818181823E-002  0.14062500000000000     
   0.0000000000000000        9.3750000000000000E-002   0.0000000000000000     
   0.0000000000000000        9.3750000000000000E-002   1.0000000000000000     
   0.0000000000000000       0.10119805731737391       0.89303091974927329     
   0.0000000000000000       0.10210219776924923        7.0764746741824577E-002
   0.0000000000000000       0.10635988421955403       0.21957230430375799     
   0.0000000000000000       0.10740857139383649       0.84564547603995810     
   0.0000000000000000       0.10786461042496739       0.46474837701534855     
   0.0000000000000000       0.10968401176898811       0.73824428233438488     
   0.0000000000000000       0.10969220020645358       0.95550186482507926     
   0.0000000000000000       0.11544264275928678       0.79209098776725284     
   0.0000000000000000       0.11808901360852578       0.59663401005457384     
   0.0000000000000000       0.12041430467853043       0.67800854775312602     
   0.0000000000000000       0.12335307882294175       0.17407035117359601     
   0.0000000000000000       0.12500000000000000        0.0000000000000000     
   0.0000000000000000       0.12500000000000000        1.0000000000000000     
   0.0000000000000000       0.13002446100559079       0.36656116971438985     
   0.0000000000000000       0.13068181818181818       0.29687500000000000     
   0.0000000000000000       0.13145794935938171       0.52792875194736344     
   0.0000000000000000       0.13152145848091723       0.25413323966508028     
   0.0000000000000000       0.14029998073959937       0.12855113636363635     
   0.0000000000000000       0.14062500000000000       0.92003956561172884     
   0.0000000000000000       0.14354289369273243        4.6375564186635417E-002
   0.0000000000000000       0.14789203175728108       0.42415466219925380     
   0.0000000000000000       0.15101795183539601       0.48437500000000000     
   0.0000000000000000       0.15625000000000000        0.0000000000000000     
   0.0000000000000000       0.15625000000000000        1.0000000000000000     
   0.0000000000000000       0.15812483216952217       0.81572518579617204     
   0.0000000000000000       0.16016925006360749       0.76155969044955663     
   0.0000000000000000       0.16105769230769232       0.64062500000000000     
   0.0000000000000000       0.16498033923188599       0.56192540447066308     
   0.0000000000000000       0.16681364204580570       0.86373403073390376     
   0.0000000000000000       0.16773736985982415       0.70646802951986931     
   0.0000000000000000       0.17187500000000000        8.5227272727272721E-002
   0.0000000000000000       0.17187500000000000       0.17187500000000000     
   0.0000000000000000       0.17230065023518384       0.24130278401345417     
   0.0000000000000000       0.17524993035964637       0.33214160114056268     
   0.0000000000000000       0.17536724190152050       0.95339263300749488     
   0.0000000000000000       0.18456495164560949       0.51836722168265548     
   0.0000000000000000       0.18672094257804892       0.28630188376875909     
   0.0000000000000000       0.18750000000000000        0.0000000000000000     
   0.0000000000000000       0.18750000000000000        1.0000000000000000     
   0.0000000000000000       0.19182611979586967        4.4839049992879139E-002
   0.0000000000000000       0.19736660067068895       0.38449523208871811     
   0.0000000000000000       0.19991704497100604       0.20641827567287876     
   0.0000000000000000       0.20249993440656938       0.12855113636363635     
   0.0000000000000000       0.20312500000000000       0.79687500000000000     
   0.0000000000000000       0.20592650903014437       0.91616923083075008     
   0.0000000000000000       0.20708080019865122       0.60347138662486799     
   0.0000000000000000       0.20881174380662740       0.45118373807264039     
   0.0000000000000000       0.21148737705495707       0.74054376865132920     
   0.0000000000000000       0.21407117136637366       0.65921232651476624     
   0.0000000000000000       0.21875000000000000        0.0000000000000000     
   0.0000000000000000       0.21875000000000000        1.0000000000000000     
   0.0000000000000000       0.22621916310275669       0.26036437453168837     
   0.0000000000000000       0.22693109923009044       0.84817608833212677     
   0.0000000000000000       0.22934361368355521       0.53497275561808477     
   0.0000000000000000       0.23291828960141181        6.3296820644412860E-002
   0.0000000000000000       0.23549788065273725       0.32831789642150322     
   0.0000000000000000       0.24440883944936315       0.20614550385605404     
   0.0000000000000000       0.25000000000000000        0.0000000000000000     
   0.0000000000000000       0.25000000000000000        1.0000000000000000     
   0.0000000000000000       0.25308036536593070       0.69963757175059260     
   0.0000000000000000       0.25433452960858166       0.94422008612362063     
   0.0000000000000000       0.25438783372307811       0.39434016470855998     
   0.0000000000000000       0.25455601108832415       0.63866292690521120     
   0.0000000000000000       0.25542104790070941       0.12478291206971995     
[...]
CELL_DATA     20981
SCALARS pressure double 1
LOOKUP_TABLE default
  0.77341047819020281     
  0.69967298023328273     
  0.16206433359311287     
  0.53963758624694302     
  0.25191317254538498     
   3.9229448773156338E-002
   3.7987431775293269E-002
  0.65461317248158135     
  0.67582693173689179     
   7.4528248008659551E-002
  0.34669715232245729     
  0.90119753257291735     
  0.15878417013775764     
  0.96925299624580841     
  0.13455021700010292     
  0.32552287172946393     
  0.84258212643401464     
  0.95706601045547068     
  0.96881219630295801     
  0.79756530332581699     
  0.94292914652291515     
  0.33675809915638394     
  0.35232136225897603     
   4.9373633804026595E-002
   2.9813634160462045E-002
  0.32086739264027175     
  0.30101648931293590     
  0.37225953062698264     
  0.41084931961578824     
  0.10880179009330115     
   4.0098991470888794E-002
  0.95086377847252157     
  0.34301393123380891     
  0.81153892575547659     
  0.69108829116153225     
  0.86651354416523274     
  0.36881960478169939     
  0.91782324798308745     
  0.95155552078048178     
  0.97451164200184515     
  0.43314235652861049     
  0.60659688654950084     
  0.85936646435675679     
  0.87583177908828980     
  0.24225778919860189     
  0.88366876521535875     
  0.94426782918644114     
  0.41960384502277531     
  0.96204041961462494     
  0.22398261973298694     
  0.68231342884337909     
  0.34170965429441957     
  0.21719932912281084     
  0.32382101964481103     
  0.87454674113810160     
  0.85042445085716545     
  0.70057694371033863     
  0.21498493916680889     
  0.75118315313517847     
  0.55060133682326651     
  0.26295505134090591     
  0.66616294414526500     
  0.23847960947386598     
  0.95130137569935469     
  0.42135100804228248     
  0.93027396916862948     
  0.19449448229028393     
  0.12942167256902631     
  0.80405534796031042     
   8.0762295564249714E-002
   4.9729671509355547E-002
   4.5536227459203889E-002
  0.15110183644583997     
  0.44956075076033059     
  0.95691419442475079     
  0.56854824864003672     
  0.39659546385198707     
  0.76313263044329238     
  0.48628527617440098     
  0.41798696869481616     
  0.65862363830254411     
  0.81061400280649965     
   5.0587510718942331E-002
  0.26911753751793549     
  0.17318820962171588     
  0.49728394664092263     
  0.52227655373037196     
  0.17935885176615346     
  0.48687811679971721     
  0.40654319134006306     
  0.42774347165972515     
  0.95299943461619396     
  0.44384055218821195     
  0.82507878792823364     
   3.8650817655449178E-002
  0.10407234064248223     
  0.85645529934285747     
  0.62092389683070504     
  0.33260247020692602     
  0.80605409807837203     
  0.52530240827119057     
  0.96776738965111542     
  0.55101542245355284     
  0.40696341702599687     
   9.1115813114222080E-002
  0.89140908824728127     
  0.97015905621542520     
  0.41751071845630772     
  0.97013531121513863     
  0.19059777033202013     
  0.38012642072954117     
  0.70901897903961730     
   1.5623696143613922E-002
  0.51559664018351670     
  0.29679552708305595     
  0.90620707066298367     
  0.15243129106292255     
  0.74720574501262271     
  0.96379635262589181     
  0.27944155905376578     
  0.64781381995100384     
  0.76219857146437131     
  0.26153728352933198     
  0.74870100457084543     
  0.20294306538734574     
  0.68145735781779604     
  0.70348851290585868     
  0.65195779001555876     
  0.28151926977554742     
  0.41100048807837603     
  0.31976056059145547     
  0.24285978248338805     
  0.41673960392101977     
  0.80190778226242088     
  0.96509974525262565     
  0.71348693150420106     
  0.23247948573774521     
   4.6774093343695339E-002
  0.31976059745303281     
  0.73544132809365692     
  0.57547556070281047     
  0.19026756565540648     
  0.96663138107943647     
  0.20298502324999529     
  0.14490035885075050     
  0.13035848177892578     
  0.33924651398002881     
  0.90281304046284094     
  0.52217894452106295     
  0.45372677895338831     
  0.15491599014761284     
  0.97091576865750240     
  0.96541268943465885     
  0.26934252407997827     
  0.95195063868344343     
  0.76710257231127887     
  0.90823624190164809     
  0.25361540521838383     
  0.29846345105848671     
  0.88906668116929977     
  0.95140028494394979     
  0.12170185650062838     
  0.30602604559904656     
  0.53713569262705041     
  0.24783058614179873     
  0.98437316175197087     
  0.49338292073946766     
   4.8182654512171692E-002
  0.19957327312489315     
  0.96287238364614858     
  0.55974580988478084     
  0.42161828744267293     
  0.52018606511404686     
   3.5614898639901860E-002
  0.46274399223886359     
  0.46148789208290059     
  0.51212744848608560     
  0.93206449046550144     
   2.7941418452077652E-002
  0.35579839381345763     
  0.90626638844806040     
  0.87376201474769144     
  0.55453499548911267     
  0.77247244442342333     
  0.33624440853185300     
  0.85766001702098627     
  0.29665272875836968     
  0.58957599741134603     
  0.90097380577929709     
  0.52883537862188457     
  0.86448194613400531     
   5.8899650839305366E-002
   4.6500995396166124E-002
  0.37536306344716119     
  0.87840788386238533     
  0.27618915463993449     
  0.33105912946689336     
  0.40726089877023042     
  0.68673229062671204     
  0.72211272000810467     
  0.11014918424710431     
  0.67927935559357366     
  0.43106896384249488     
  0.83661720516133720     
  0.39052292132930760     
   4.3614028816353775E-002
   7.7795838016935626E-002
  0.23632871369844274     
  0.34943984860628019     
  0.35065371545769458     
   3.9224841422983062E-002
  0.74287358503882261     
  0.97306017090633090     
  0.61267579882042300     
  0.44971540401272947     
  0.23671737004859006     
  0.87011593687500399     
  0.58244497630232095     
  0.91404100437845082     
  0.16609545094403372     
  0.71922213842103744     
  0.26793847137532883     
  0.51208779625258938     
   1.5612353629922625E-002
  0.16266978779636687     
  0.67016745369876507     
   5.6973078577462574E-002
  0.42322681168830889     
   3.2549680456186225E-002
  0.94813735418506984     
  0.71584995133391294     
  0.52047674522964738     
  0.53768088835506478     
  0.62892820145205386     
  0.55694818213987196     
  0.10645246997267288     
  0.31280890713456261     
  0.63087245301790817     
  0.47791507875226924     
   9.1404559469168048E-002
  0.83276822002512496     
   3.2477177656452194E-002
  0.31583275241210229     
  0.80700974001073678     
  0.78723896893112510     
  0.42387683107685875     
  0.39421001741593786     
  0.44200855840387931     
   4.3127180137780226E-002
  0.33475504469175582     
  0.96348345366382793     
  0.90963923884994169     
   2.8576694937891809E-002
   3.1686935390198068E-002
  0.17185690632084366     
   2.6192032269996050E-002
  0.40835841951056190     
  0.33141428685758217     
  0.69770963160932220     
  0.33684885472572768     
  0.87017534525052054     
  0.20320902178645395     
  0.22549778139423160     
  0.25118202035346732     
   3.3551987823402386E-002
  0.10532562602221782     
  0.73542483569937633     
  0.15888315838831726     
  0.78568316422619233     
  0.95340271681648292     
  0.59328689049588079     
   2.5308098654316706E-002
  0.64447314528562982     
  0.76630658276198538     
  0.51267636963754593     
  0.78360214028314579     
  0.50767937637006755     
  0.71388056548849366     
  0.61310717849401675     
  0.33544052568999155     
  0.66118448160105692     
   3.2452210354003558E-002
   5.3784033149335886E-002
  0.29673116838245966     
  0.98107792953010720     
  0.94430624713284950     
  0.35185514969481280     
  0.36100968287972535     
   3.8619731461137986E-002
  0.68094815532377784     
  0.95453422718588454     
   2.5933904636597463E-002
  0.48449669031242654     
  0.93946373143228601     
  0.24287134077002739     
  0.42942699680682955     
  0.27696064429981665     
  0.33282232347746871     
  0.98437407556592871     
  0.64203302977403587     
  0.12526641591276863     
  0.16764383107601857     
  0.53201770036796525     
  0.93034526048199850     
  0.37986309159800086     
  0.40278054007391639     
  0.73696283785093442     
   5.4027665767034445E-002
  0.83394914956380217     
  0.97706501297629622     
  0.97805571320917806     
  0.14836094206300074     
   3.7502149449161547E-002
  0.48249578489960737     
  0.80529423950426959     
  0.46851975633401816     
  0.14035594566260409     
   1.5619965698173952E-002
  0.31240159571023079     
  0.22907121047528947     
  0.88913237152539804     
  0.88318330073712192     
   6.7617245230503178E-002
  0.42446027306866324     
   4.6430582984184857E-002
  0.64644579874705099     
  0.15238450660002922     
   5.0301340099760811E-002
  0.73955266286074606     
  0.76853577117015515     
  0.24553684359674754     
  0.60311696953517213     
  0.47893188784705931     
  0.97266998011216244     
  0.74764402949107966     
  0.68196150321455062     
   3.8160291661212049E-002
  0.20707594176764679     
  0.95523782763126253     
  0.43431735960021245     
  0.43479707962531605     
  0.35912178891945040     
  0.76876676469311900     
  0.53998286127243722     
  0.27680030415362206     
  0.11299787496436320     
  0.52976319803669814     
  0.44458490167989589     
  0.41157297196739606     
  0.67270306441128236     
  0.87883260359380677     
  0.88626224084012306     
  0.34660577505434687     
  0.25519413138407959     
  0.60094371113338763     
  0.19907931850910024     
  0.19018232590326617     
  0.98437399702090944     
  0.55156825121557562     
  0.60448874320070733     
  0.69041666352225817     
  0.22097498225617071     
  0.89414584857286949     
  0.27544466485962416     
  0.74110188942214450     
  0.56416557640407594     
  0.40253473603402168     
  0.77466946048289131     
  0.96958337089656399     
  0.66431585623421319     
  0.96983825746744945     
  0.36584205830352073     
  0.73240687638265267     
  0.54048346696578020     
  0.20867467928487357     
  0.88429060011058735     
  0.81014210090265526     
  0.71881870159480932     
  0.18146115117298464     
  0.70510159676514783     
  0.36033472294186542     
  0.83244273956167558     
  0.74022434455045716     
  0.86585947749174186     
  0.53971167587734181     
  0.23790992869954461     
  0.76806270027211154     
  0.73492037235782681     
  0.97302783358269163     
  0.95600687057419675     
  0.95156039733687692     
  0.17986789533772840     
  0.82853881232603577     
   5.5338024785332215E-002
  0.80679365982943307     
   4.5676225323696265E-002
  0.44810994353138572     
  0.76770544559908227     
  0.95195845348169217     
  0.37909150960812182     
  0.77362761985105144     
  0.98438841738293081     
  0.96055705660692714     
  0.61443188702923068     
   3.9875844549093445E-002
  0.12247728152826606     
  0.60154589556503435     
  0.77996403029742301     
  0.88776330248150992     
  0.71593281014506349     
  0.11907421537314482     
  0.31198966333044220     
  0.72493668721935245     
  0.28373330874748753     
  0.89375714344457147     
  0.72968518718489117     
   9.5664258934074792E-002
  0.40133520576785503     
   4.2644470547909236E-002
  0.71239996939105354     
  0.34824584701671352     
  0.39060183103165913     
  0.50485723780186731     
  0.12754483802753683     
  0.28951524159265579     
  0.39083871339367909     
  0.86363604073635314     
  0.53273903454506255     
   4.4260867637304364E-002
  0.94110201269436367     
   4.2345410126508241E-002
  0.15977551226868159     
  0.68886633380865692     
  0.16635011718863751     
  0.19631650423322267     
  0.90066441162408428     
   9.0934563965026458E-002
  0.50657218363343748     
  0.78742089824711803     
  0.86288562874724817     
   4.4800454876636940E-002
  0.56173123251588752     
  0.22018369676320015     
  0.31152314624532706     
  0.80789797805470442     
  0.12511241469721049     
  0.64304537698496289     
   4.3241541280810321E-002
  0.68108448385328513     
  0.75111647128723813     
  0.37046704342196479     
  0.18866553465258590     
  0.95137619317914701     
  0.41979991748272893     
  0.35953641579377782     
  0.90322428814861722     
  0.66443785880579997     
  0.87726708465338354     
   2.3568540238779485E-002
  0.75463264002124342     
  0.97445482181934073     
  0.16905456449328268     
  0.15558059028064283     
  0.59998582581625759     
  0.73236867652221604     
  0.46046600460403808     
  0.97095261357724982     
  0.23435194721386571     
  0.94804222474073163     
  0.32302098997482714     
  0.51971042404408108     
  0.70357110894197239     
   1.5623221065940066E-002
   4.1915082626366215E-002
  0.58043041113318583     
  0.95495722756869494     
  0.38105008197938006     
  0.40163108763802807     
  0.27472349579918343     
  0.63744710800244586     
  0.90463074507603669     
  0.61026896610355619     
  0.82482212215265915     
  0.42357042635327330     
   3.5212649223657841E-002
  0.22527593350904274     
  0.33041647422413400     
  0.64978159300270477     
  0.81873152138913730     
  0.62324447597367416     
  0.88752092224716672     
  0.41354047471735450     
  0.15554014062711455     
  0.61750442526481719     
   3.9290111666482191E-002
  0.87747219048791902     
  0.81826694301930725     
  0.14276342105419609     
  0.12776782241089496     
  0.60672785540013041     
  0.72714882802484548     
  0.72817114782860970     
  0.23656290247358150     
  0.95664095552195838     
  0.67372066150766796     
  0.87501558663272916     
  0.21438403825941282     
  0.18082103764459795     
  0.66710232626187349     
  0.56034051376382121     
  0.63348327994725384     
  0.69039142679953569     
  0.48552825098636992     
   2.2390317364959712E-002
  0.18879838908276078     
  0.93873164779761942     
   3.2865924851717014E-002
  0.96179245420233905     
  0.55292620142159776     
  0.32080703513896053     
  0.73088312135084565     
  0.12856381200970488     
  0.11747602798563306     
  0.51375467427936650     
  0.89297610226634894     
  0.94164766041363435     
  0.92753110264878946     
  0.19904970261830074     
   3.2491466438806876E-002
  0.96381171004430177     
  0.97383795223459724     
  0.73631224205116286     
   3.9051072966632364E-002
  0.45375359473685078     
  0.40655696975396488     
  0.52924807506354909     
  0.38179226228123125     
  0.56273466215660362     
  0.20490489058232786     
  0.47229850819775110     
  0.31541014775276466     
  0.90901523197636691     
  0.14972312185560577     
  0.82003266542728459     
   3.5028158193836451E-002
  0.66089450647808601     
  0.25071006941454271     
  0.69171552561688832     
  0.85414814946869833     
  0.77973580374183149     
  0.35601498843985235     
  0.88404096456628800     
   9.8196424240641844E-002
  0.31824297247674777     
  0.57308870057141781     
   2.5475903378253163E-002
  0.71150636423328373     
  0.38074529927214046     
  0.72088700296689079     
  0.79260333669414806     
  0.42761324366266618     
  0.51788517567559222     
  0.20134611230422722     
  0.22028656205073949     
   4.3739501880124029E-002
  0.34557166014408225     
  0.47960371720459871     
  0.93484439734142588     
  0.19220778153832066     
   2.5820395913191522E-002
   7.6345717002342439E-002
  0.76710927261252837     
  0.32061775038748686     
  0.24279387982560863     
  0.34191272224531122     
   8.9465591184352086E-002
  0.60734821886045920     
   2.2336332119764483E-002
  0.53959991281380681     
  0.47587068538396882     
   5.0133788510128445E-002
   2.5144639536168766E-002
  0.22261204256908532     
  0.67185598547981673     
  0.45399890779172469     
   3.0723343329490657E-002
  0.70708253078792060     
  0.90527928117689782     
  0.56049453433536411     
   3.1399002743994382E-002
   8.5181430671553010E-002
  0.42383840071365003     
  0.80319884781716600     
  0.65058712847625977     
   5.1742680175607347E-002
  0.83050608086295541     
  0.81794968481429642     
   4.9051494579424149E-002
   5.0279358923546111E-002
  0.22143399551447104     
  0.17317128555111605     
  0.29128856188281244     
  0.60875842166131244     
  0.67737100141300288     
  0.98047125058053075     
  0.78625088027924439     
  0.12686762957881972     
  0.57777048933480968     
  0.51211866959646346     
  0.12904461197896094     
  0.76577582370793484     
  0.10548368731967307     
  0.76190338176650785     
  0.45847023159991129     
  0.43431451773191665     
  0.46129178344511312     
  0.90977681307599256     
  0.90600777808200050     
  0.97839434808707459     
  0.96915068661917658     
  0.31783808366619809     
  0.86943860699669406     
  0.95224902342049855     
   9.5719690632525917E-002
  0.97039273980720597     
  0.80019853885811709     
  0.70781458074168813     
  0.45136356451778320     
   3.2068561868798549E-002
  0.66130438063223895     
  0.87833130879801324     
   3.6718442218875824E-002
  0.65769220056622757     
   5.1055618311526399E-002
   3.1523162628045484E-002
  0.59267011865003949     
  0.21384296763229479     
  0.88395503772543749     
  0.72704240070791259     
  0.43217486620564827     
  0.95232196374295341     
  0.22733017910696710     
  0.21693502559316277     
  0.29967406896703935     
  0.13394457258345080     
   3.9780095452960247E-002
  0.77300209953634735     
  0.46329939111941038     
  0.66370310682780043     
  0.14144039992527460     
  0.56657611115540718     
  0.13544670339647771     
  0.98122294014471567     
  0.95905772545043677     
  0.41975704042436429     
  0.95756180869704854     
  0.21982136515605849     
   6.2257206293705257E-002
  0.64513727534699983     
  0.75281096629816979     
  0.95610503410669034     
  0.43901694742072600     
  0.89981640804051277     
  0.57175560916941426     
  0.87237313668947725     
  0.97197625871402626     
  0.93541726805555836     
  0.46672264284301190     
  0.33526351599056042     
  0.45168604479659030     
  0.41143425425048019     
  0.47325838560940270     
  0.54888781733656733     
  0.29685464352772656     
  0.62672533302009936     
  0.96456348187328811     
  0.23884749988697124     
  0.85282537219384169     
  0.55969289426132895     
  0.26731712370509003     
  0.60912119140357335     
  0.96735267354850418     
  0.49915096406327758     
  0.96044605338330813     
  0.29969109396087062     
  0.86674454185317873     
  0.35735114895923686     
  0.68178393957580219     
  0.40990338398609394     
  0.46936644101632219     
  0.28237316165696680     
   4.3465502351499839E-002
  0.53819139729408050     
  0.96641740093677941     
   3.5754240377723165E-002
  0.79535936579518074     
   3.5589931350004995E-002
   3.0133376957504759E-002
  0.20488732722795408     
  0.55523695343200441     
  0.54345252497870367     
   3.8393129998006648E-002
   9.3097213981233218E-002
  0.16720695496776244     
  0.75044933801699609     
  0.44805901223809880     
  0.21115977285343096     
  0.30579237346866578     
  0.11729558213629866     
  0.76040659307048619     
   5.4040405990691126E-002
  0.19109937024765142     
  0.67198806677301648     
  0.27132510675836680     
  0.40556910428979143     
  0.48507590685707530     
  0.68221561416652587     
  0.22807345071987714     
  0.33445072009645987     
  0.14787956445034228     
  0.83617638442426567     
  0.62144239139203583     
  0.58707388285726625     
   4.5107324408213953E-002
  0.96204549559134134     
  0.81437466869121888     
  0.74484975092596062     
  0.94986696654129432     
  0.23500234210623966     
  0.62142327299690847     
   2.7225468554320460E-002
  0.83583741458105265     
  0.39813146143706873     
  0.29409367878125198     
  0.62048422605151121     
  0.94727937348568880     
  0.93033207761446346     
  0.55759196712212233     