# vtk DataFile Version 3.0
Unstructured Grid
ASCII
DATASET UNSTRUCTURED_GRID
POINTS      4550 double
   0.0000000000000000        0.0000000000000000        0.0000000000000000     
   0.0000000000000000        0.0000000000000000        3.1250000000000000E-002
   0.0000000000000000        0.0000000000000000        6.2500000000000000E-002
   0.0000000000000000        0.0000000000000000        9.3750000000000000E-002
   0.0000000000000000        0.0000000000000000       0.12500000000000000     
   0.0000000000000000        0.0000000000000000       0.15625000000000000     
   0.0000000000000000        0.0000000000000000       0.18750000000000000     
   0.0000000000000000        0.0000000000000000       0.21875000000000000     
   0.0000000000000000        0.0000000000000000       0.25000000000000000     
   0.0000000000000000        0.0000000000000000       0.28125000000000000     
   0.0000000000000000        0.0000000000000000       0.31250000000000000     
   0.0000000000000000        0.0000000000000000       0.34375000000000000     
   0.0000000000000000        0.0000000000000000       0.37500000000000000     
   0.0000000000000000        0.0000000000000000       0.40625000000000000     
   0.0000000000000000        0.0000000000000000       0.43750000000000000     
   0.0000000000000000        0.0000000000000000       0.46875000000000000     
   0.0000000000000000        0.0000000000000000       0.50000000000000000     
   0.0000000000000000        0.0000000000000000       0.53125000000000000     
   0.0000000000000000        0.0000000000000000       0.56250000000000000     
   0.0000000000000000        0.0000000000000000       0.59375000000000000     
   0.0000000000000000        0.0000000000000000       0.62500000000000000     
   0.0000000000000000        0.0000000000000000       0.65625000000000000     
   0.0000000000000000        0.0000000000000000       0.68750000000000000     
   0.0000000000000000        0.0000000000000000       0.71875000000000000     
   0.0000000000000000        0.0000000000000000       0.75000000000000000     
   0.0000000000000000        0.0000000000000000       0.78125000000000000     
   0.0000000000000000        0.0000000000000000       0.81250000000000000     
   0.0000000000000000        0.0000000000000000       0.84375000000000000     
   0.0000000000000000        0.0000000000000000       0.87500000000000000     
   0.0000000000000000        0.0000000000000000       0.90625000000000000     
   0.0000000000000000        0.0000000000000000       0.93750000000000000     
   0.0000000000000000        0.0000000000000000       0.96875000000000000     
   0.0000000000000000        0.0000000000000000        1.0000000000000000     
   0.0000000000000000        3.1250000000000000E-002   0.0000000000000000     
   0.0000000000000000        3.1250000000000000E-002   1.0000000000000000     
   0.0000000000000000        4.2405763908650258E-002  0.66130451259029932     
   0.0000000000000000        4.3217879046206449E-002  0.14760011926069846     
   0.0000000000000000        4.6024266659168159E-002  0.44206785664549769     
   0.0000000000000000        4.6024266659168159E-002  0.52668214335450225     
   0.0000000000000000        5.0942866059175335E-002  0.10420737699075047     
   0.0000000000000000        5.2217891062431979E-002   5.2217891062431979E-002
   0.0000000000000000        5.2761163692563604E-002  0.38171595438393841     
   0.0000000000000000        5.5068963296708517E-002  0.59134852187332609     
   0.0000000000000000        5.6120114733671470E-002  0.75604724093930309     
   0.0000000000000000        5.6324478455296215E-002  0.24577786591727294     
   0.0000000000000000        5.7363532779538949E-002  0.87371196899699510     
   0.0000000000000000        5.7470675736370332E-002  0.18930699270579771     
   0.0000000000000000        5.8263363642804059E-002  0.81429895566577748     
   0.0000000000000000        6.0887870516095753E-002  0.69980397551580908     
   0.0000000000000000        6.2500000000000000E-002   0.0000000000000000     
   0.0000000000000000        6.2500000000000000E-002   1.0000000000000000     
   0.0000000000000000        6.4711269014538775E-002  0.48437500000000000     
   0.0000000000000000        6.9225209415320288E-002  0.33114145848017668     
   0.0000000000000000        7.0413861272891454E-002  0.92958613872710860     
   0.0000000000000000        7.9770917049368548E-002  0.64062500000000000     
   0.0000000000000000        8.3926071099233085E-002  0.28526314383622647     
   0.0000000000000000        8.7633724434323254E-002  0.42187500000000000     
   0.0000000000000000        8.7633724434323254E-002  0.54687500000000000     
   0.0000000000000000        8.8068181818181823E-002  0.14062500000000000     
   0.0000000000000000        9.3750000000000000E-002   0.0000000000000000     
   0.0000000000000000        9.3750000000000000E-002   1.0000000000000000     
   0.0000000000000000       0.10119805731737391       0.89303091974927329     
   0.0000000000000000       0.10210219776924923        7.0764746741824577E-002
   0.0000000000000000       0.10635988421955403       0.21957230430375799     
   0.0000000000000000       0.10740857139383649       0.84564547603995810     
   0.0000000000000000       0.10786461042496739       0.46474837701534855     
   0.0000000000000000       0.10968401176898811       0.73824428233438488     
   0.0000000000000000       0.10969220020645358       0.95550186482507926     
   0.0000000000000000       0.11544264275928678       0.79209098776725284     
   0.0000000000000000       0.11808901360852578       0.59663401005457384     
   0.0000000000000000       0.12041430467853043       0.67800854775312602     
   0.0000000000000000       0.12335307882294175       0.17407035117359601     
   0.0000000000000000       0.12500000000000000        0.0000000000000000     
   0.0000000000000000       0.12500000000000000        1.0000000000000000     
   0.0000000000000000       0.13002446100559079       0.36656116971438985     
   0.0000000000000000       0.13068181818181818       0.29687500000000000     
   0.0000000000000000       0.13145794935938171       0.52792875194736344     
   0.0000000000000000       0.13152145848091723       0.25413323966508028     
   0.0000000000000000       0.14029998073959937       0.12855113636363635     
   0.0000000000000000       0.14062500000000000       0.92003956561172884     
   0.0000000000000000       0.14354289369273243        4.6375564186635417E-002
   0.0000000000000000       0.14789203175728108       0.42415466219925380     
   0.0000000000000000       0.15101795183539601       0.48437500000000000     
   0.0000000000000000       0.15625000000000000        0.0000000000000000     
   0.0000000000000000       0.15625000000000000        1.0000000000000000     
   0.0000000000000000       0.15812483216952217       0.81572518579617204     
   0.0000000000000000       0.16016925006360749       0.76155969044955663     
   0.0000000000000000       0.16105769230769232       0.64062500000000000     
   0.0000000000000000       0.16498033923188599       0.56192540447066308     
   0.0000000000000000       0.16681364204580570       0.86373403073390376     
   0.0000000000000000       0.16773736985982415       0.70646802951986931     
   0.0000000000000000       0.17187500000000000        8.5227272727272721E-002
   0.0000000000000000       0.17187500000000000       0.17187500000000000     
   0.0000000000000000       0.17230065023518384       0.24130278401345417     
   0.0000000000000000       0.17524993035964637       0.33214160114056268     
   0.0000000000000000       0.17536724190152050       0.95339263300749488     
   0.0000000000000000       0.18456495164560949       0.51836722168265548     
   0.0000000000000000       0.18672094257804892       0.28630188376875909     
   0.0000000000000000       0.18750000000000000        0.0000000000000000     
   0.0000000000000000       0.18750000000000000        1.0000000000000000     
   0.0000000000000000       0.19182611979586967        4.4839049992879139E-002
   0.0000000000000000       0.19736660067068895       0.38449523208871811     
   0.0000000000000000       0.19991704497100604       0.20641827567287876     
   0.0000000000000000       0.20249993440656938       0.12855113636363635     
   0.0000000000000000       0.20312500000000000       0.79687500000000000     
   0.0000000000000000       0.20592650903014437       0.91616923083075008     
   0.0000000000000000       0.20708080019865122       0.60347138662486799     
   0.0000000000000000       0.20881174380662740       0.45118373807264039     
   0.0000000000000000       0.21148737705495707       0.74054376865132920     
   0.0000000000000000       0.21407117136637366       0.65921232651476624     
   0.0000000000000000       0.21875000000000000        0.0000000000000000     
   0.0000000000000000       0.21875000000000000        1.0000000000000000     
   0.0000000000000000       0.22621916310275669       0.26036437453168837     
   0.0000000000000000       0.22693109923009044       0.84817608833212677     
   0.0000000000000000       0.22934361368355521       0.53497275561808477     
   0.0000000000000000       0.23291828960141181        6.3296820644412860E-002
   0.0000000000000000       0.23549788065273725       0.32831789642150322     
   0.0000000000000000       0.24440883944936315       0.20614550385605404     
   0.0000000000000000       0.25000000000000000        0.0000000000000000     
   0.0000000000000000       0.25000000000000000        1.0000000000000000     
   0.0000000000000000       0.25308036536593070       0.69963757175059260     
   0.0000000000000000       0.25433452960858166       0.94422008612362063     
   0.0000000000000000       0.25438783372307811       0.39434016470855998     
   0.0000000000000000       0.25455601108832415       0.63866292690521120     
   0.0000000000000000       0.25542104790070941       0.12478291206971995     
[...]
CELL_DATA     20981
SCALARS pressure double 1
LOOKUP_TABLE default
  0.77338915992115653     
  0.69965143983607558     
  0.16197168907004267     
  0.53960015088395119     
  0.25185831290338540     
   3.9215251667637507E-002
   3.7979958644715123E-002
  0.65457832545521522     
  0.67580409887861470     
   7.4517168676882642E-002
  0.34666493296099443     
  0.90118810638384161     
  0.15874584397313796     
  0.96925010502979692     
  0.13449211621796733     
  0.32532784482395877     
  0.84260868083611362     
  0.95706198231850192     
  0.96883127002595226     
  0.79802023838738934     
  0.94297682055440046     
  0.33653450310265498     
  0.35222536935398097     
   4.9364940134531091E-002
   2.9803897883413581E-002
  0.32083658814213162     
  0.30092030452200919     
  0.37222735188483896     
  0.41081173004458199     
  0.10874476483796636     
   4.0086995479845899E-002
  0.95086602331678283     
  0.34268621165935503     
  0.81153188993537317     
  0.69105154149321735     
  0.86667393925734848     
  0.36835872841148365     
  0.91781553464470333     
  0.95155090736112047     
  0.97450929789895446     
  0.43304468556355247     
  0.60653681255991498     
  0.85935335605399110     
  0.87593408552613428     
  0.24202596822010855     
  0.88366527622372493     
  0.94426253763192247     
  0.41952897271376610     
  0.96204357186639089     
  0.22390543690779779     
  0.68227715331182892     
  0.34161229097003193     
  0.21706237836916562     
  0.32378300002337862     
  0.87455811937490013     
  0.85074493666059070     
  0.70054102072929947     
  0.21495661518062989     
  0.75115717548070049     
  0.55051217568429356     
  0.26292606340760405     
  0.66613342890264327     
  0.23832483003808283     
  0.95129655610017760     
  0.42099587277889750     
  0.93039287736219434     
  0.19435629461761572     
  0.12937867333018477     
  0.80459014486686842     
   8.0737486555747834E-002
   4.9688754741583178E-002
   4.5505685515021405E-002
  0.15099825583901869     
  0.44942338401237719     
  0.95694540795346095     
  0.56849856560111689     
  0.39655836678753148     
  0.76355987830867744     
  0.48584143938279906     
  0.41779690907898975     
  0.65859939537691758     
  0.81083129674456467     
   5.0575920174367024E-002
  0.26888706473562124     
  0.17303729441039292     
  0.49717894792238104     
  0.52217199781685142     
  0.17932620573664959     
  0.48681008477626003     
  0.40648610684145270     
  0.42763251669540386     
  0.95299499230547247     
  0.44366089021849414     
  0.82510028761772225     
   3.8623630447122782E-002
  0.10400466097865846     
  0.85644588091809426     
  0.62087373989870964     
  0.33252383505884903     
  0.80603638572085257     
  0.52513848237455996     
  0.96776513150812282     
  0.55072996871278057     
  0.40678140950884883     
   9.1057555769459661E-002
  0.89139817065972726     
  0.97015739447548843     
  0.41747465049171661     
  0.97013249792570766     
  0.19057424862270350     
  0.38008397119741955     
  0.71030275448889857     
   1.5622222907393107E-002
  0.51555996846131391     
  0.29672743577532112     
  0.90623723154985658     
  0.15234267430339260     
  0.74718032753001706     
  0.96379329192336916     
  0.27926543931419096     
  0.64777748441524496     
  0.76318223395210882     
  0.26150860109450169     
  0.74867983019023399     
  0.20290018462468032     
  0.68139689856461905     
  0.70345611305790612     
  0.65191736245568033     
  0.28148958082376380     
  0.41096532865485202     
  0.31946301419627338     
  0.24277681294754963     
  0.41667309753434617     
  0.80188948761247181     
  0.96510479519521741     
  0.71346476571920880     
  0.23244539479237572     
   4.6767538184799819E-002
  0.31962274288714781     
  0.73541535653519952     
  0.57538553885265764     
  0.19012273714390290     
  0.96673414769632127     
  0.20284598999993589     
  0.14488678070450833     
  0.13028893853493362     
  0.33921470904404694     
  0.90280418772923943     
  0.52214668038763878     
  0.45367210621138004     
  0.15481451093550949     
  0.97093133569848578     
  0.96541411522002263     
  0.26931900361919481     
  0.95194644068248824     
  0.76708977408039647     
  0.90822755170465441     
  0.25345956579808038     
  0.29815126932340058     
  0.88905863234350746     
  0.95139989444060380     
  0.12165427016274821     
  0.30597596481941935     
  0.53701286464108910     
  0.24778647498306722     
  0.98437247558160679     
  0.49321326078031075     
   4.8169444036675189E-002
  0.19952222281244683     
  0.96287071213668363     
  0.55970623651331097     
  0.42144483294608981     
  0.52009671407345992     
   3.5606999546313085E-002
  0.46266127407347418     
  0.46145981372404238     
  0.51209008128795053     
  0.93205807929022744     
   2.7937430581918943E-002
  0.35576006056835480     
  0.90625837495177453     
  0.87381764473051093     
  0.55442589222066874     
  0.77244951597672495     
  0.33617865126970936     
  0.85782536531645226     
  0.29648227707189928     
  0.58931222846462561     
  0.90100453171600703     
  0.52873659956496977     
  0.86447313060770248     
   5.8890121192884719E-002
   4.6488080048192174E-002
  0.37514072578441898     
  0.87842936451977216     
  0.27615018423365389     
  0.33087724688717618     
  0.40721616648438497     
  0.68725852831346579     
  0.72208429002140784     
  0.11013043250692753     
  0.67924288345584960     
  0.43084361228499396     
  0.83682629727052715     
  0.39048854359066038     
   4.3608117901719201E-002
   7.7787911797865691E-002
  0.23629236980902868     
  0.34930320199971543     
  0.35060239217419176     
   3.9204432330631964E-002
  0.74284816048612901     
  0.97305763110879140     
  0.61258328319828115     
  0.44963894659811232     
  0.23656130951750104     
  0.87010376999233763     
  0.58240591584147283     
  0.91403287653601339     
  0.16599112646628819     
  0.71919505258264582     
  0.26776830055593270     
  0.51204967000323065     
   1.5601979049675356E-002
  0.16264823986755372     
  0.67012551472205861     
   5.6939963896236734E-002
  0.42318344623229825     
   3.2527561806849417E-002
  0.94813249042212533     
  0.71581824035844854     
  0.52025219381499899     
  0.53761567938798904     
  0.62889755813019943     
  0.55691990395558755     
  0.10643876350216575     
  0.31276358664865156     
  0.63081104268241805     
  0.47745188076132361     
   9.1332738006733680E-002
  0.83291316020738182     
   3.2469677619129687E-002
  0.31565685335701704     
  0.80699189452649189     
  0.78721973193669670     
  0.42383929919744573     
  0.39402029169469110     
  0.44190759450432265     
   4.3108736026022609E-002
  0.33472974524455951     
  0.96353136667165962     
  0.90964578208712898     
   2.8572929359091271E-002
   3.1682756780370823E-002
  0.17183569375557964     
   2.6178604069039293E-002
  0.40832052802691765     
  0.33123545515161701     
  0.69768466422835762     
  0.33680870172987298     
  0.87033116640669494     
  0.20316789780373226     
  0.22530142113159393     
  0.25115677544423387     
   3.3538512794440971E-002
  0.10526875081028761     
  0.73539899131045949     
  0.15885240029097739     
  0.78571118714557953     
  0.95339883230388789     
  0.59329149081172505     
   2.5305588690699821E-002
  0.64443953885755922     
  0.76721355292540627     
  0.51261804248699039     
  0.78374816685155868     
  0.50746941319577721     
  0.71386321390933050     
  0.61304506819616156     
  0.33537420687744413     
  0.66115460954325889     
   3.2448877325305145E-002
   5.3777023990836510E-002
  0.29646909675701055     
  0.98107616103245432     
  0.94430094729138803     
  0.35169794534954579     
  0.36095770246254971     
   3.8599221834501478E-002
  0.68099883535021777     
  0.95452995255547990     
   2.5921456761293218E-002
  0.48444819250136689     
  0.93945945846061696     
  0.24282217807904255     
  0.42938385369122734     
  0.27693408298493977     
  0.33269313140810780     
  0.98437260933318549     
  0.64194663276728481     
  0.12522314199191389     
  0.16753750568747428     
  0.53180122187261170     
  0.93033887671024063     
  0.37980012650086231     
  0.40269724457716571     
  0.73711606226965209     
   5.4020562713997529E-002
  0.83401382142761982     
  0.97706285375432100     
  0.97805449707237524     
  0.14833964285518966     
   3.7492533105882887E-002
  0.48244099858916922     
  0.80527935579716681     
  0.46803447085624250     
  0.14029768501788722     
   1.5615530979424032E-002
  0.31236961014861570     
  0.22904434577885180     
  0.88917570958952963     
  0.88339349647045673     
   6.7605645374844814E-002
  0.42423606121350971     
   4.6423657457952502E-002
  0.64639245659102429     
  0.15232533897887135     
   5.0287649500123849E-002
  0.73952210894696602     
  0.76895746760518346     
  0.24543676266681455     
  0.60292405830459161     
  0.47882652361435157     
  0.97269614221290857     
  0.74762369435243292     
  0.68193017041309234     
   3.8156657097898478E-002
  0.20688998548750739     
  0.95537729266520488     
  0.43428825867426568     
  0.43471641398488770     
  0.35893606631175623     
  0.76874636280983721     
  0.53995118408535125     
  0.27674205778210309     
  0.11291887524732795     
  0.52950685556666899     
  0.44454717827444928     
  0.41143244112064548     
  0.67264357122077079     
  0.87888662516637428     
  0.88625852660349236     
  0.34656380360256228     
  0.25513499751402019     
  0.60090097167585654     
  0.19904958597594791     
  0.19005302529093204     
  0.98437274937912222     
  0.55152863582499134     
  0.60440423905673790     
  0.69038581162691515     
  0.22094194148174934     
  0.89413568556598544     
  0.27520228115064871     
  0.74107973820788053     
  0.56411115709966453     
  0.40243847827786150     
  0.77464749135102129     
  0.96963500696738836     
  0.66428153902113285     
  0.96983693307430840     
  0.36580591862866818     
  0.73238071316926889     
  0.54043448151478424     
  0.20865346527920153     
  0.88427973295765183     
  0.81012594698499540     
  0.71879516358177364     
  0.18139614170215651     
  0.70507505416540817     
  0.36027444413897208     
  0.83244467234352404     
  0.74020117657153361     
  0.86584965697993144     
  0.53932940254353445     
  0.23788527654135769     
  0.76804009060737988     
  0.73488974041986332     
  0.97302551225404788     
  0.95600271957450489     
  0.95155581792693067     
  0.17973417640417752     
  0.82888190237731263     
   5.5302383348035410E-002
  0.80677799218445023     
   4.5670117011371553E-002
  0.44806401016497965     
  0.76785051319738640     
  0.95195406734781218     
  0.37894315834392139     
  0.77360661892362070     
  0.98440532862011865     
  0.96055334614817434     
  0.61444349237278817     
   3.9868648554925175E-002
  0.12238260128293180     
  0.60149675038641692     
  0.77994507338003294     
  0.88784322039949748     
  0.71591083129990118     
  0.11899781017254442     
  0.31191124345759613     
  0.72513733149608595     
  0.28369894938260648     
  0.89397342031663141     
  0.72965709548054325     
   9.5649064195730132E-002
  0.40125040149257196     
   4.2629789798046352E-002
  0.71304173274733951     
  0.34806035862738910     
  0.39057496256927793     
  0.50481725212574480     
  0.12752372691564387     
  0.28945178069618199     
  0.39066437420434069     
  0.86362463855636307     
  0.53270993621677576     
   4.4237672801411956E-002
  0.94111649934256580     
   4.2339672192319718E-002
  0.15964226856527011     
  0.68890794356201823     
  0.16621197212953662     
  0.19616074534918254     
  0.90065481212153597     
   9.0876413686606067E-002
  0.50648073055131837     
  0.78758686820472401     
  0.86292123925517616     
   4.4795218464001960E-002
  0.56166503526136768     
  0.22015651220005167     
  0.31133154314402151     
  0.80788011662687009     
  0.12505521110088999     
  0.64299266161733182     
   4.3222671900213318E-002
  0.68105242676001876     
  0.75108849239616948     
  0.37043090944990981     
  0.18864329352990056     
  0.95140996300903646     
  0.41972608231805664     
  0.35950246247814432     
  0.90321585346547217     
  0.66440821828481278     
  0.87725615309041904     
   2.3565513242031450E-002
  0.75471548151842671     
  0.97445264540833687     
  0.16902912821754856     
  0.15556432945472312     
  0.59992924389323676     
  0.73234039618108682     
  0.46019417164593190     
  0.97094987723189374     
  0.23432463515888957     
  0.94804036745387166     
  0.32293059977794247     
  0.51966886220772801     
  0.70354986945252773     
   1.5621160805322391E-002
   4.1907059708898436E-002
  0.57831542456292062     
  0.95495302913601410     
  0.38101354995026238     
  0.40117559678364006     
  0.27462199994953301     
  0.63739826809347222     
  0.90462178199858634     
  0.61023593681477895     
  0.82480693408120187     
  0.42353281154482747     
   3.5205746882527138E-002
  0.22514944881306651     
  0.33037770855328213     
  0.64974912753983538     
  0.81871483578085080     
  0.62327801179270548     
  0.88750991744317009     
  0.41346182614958632     
  0.15546521364200336     
  0.61742394050343330     
   3.9274898800850083E-002
  0.87746652127184310     
  0.81824944680169442     
  0.14274917310324881     
  0.12775342418924698     
  0.60667253976044899     
  0.72712456871853304     
  0.72818297641030605     
  0.23654133754117443     
  0.95664751288041205     
  0.67369232600086149     
  0.87518561401635808     
  0.21424040678724218     
  0.18079710372789690     
  0.66706368094109414     
  0.56029571066055839     
  0.63345151979097758     
  0.69033575736174491     
  0.48549817574775811     
   2.2387759297594498E-002
  0.18877613699869758     
  0.93872911748834564     
   3.2861565497074308E-002
  0.96178904643592156     
  0.55287736257700693     
  0.32075962118785034     
  0.73085726426736164     
  0.12854758857745477     
  0.11745735061503124     
  0.51250223585693766     
  0.89296987949089779     
  0.94165388984417742     
  0.92752416149771810     
  0.19896368147210225     
   3.2487654360292634E-002
  0.96383482188313463     
  0.97383868246840555     
  0.73664573687623081     
   3.9036692032327049E-002
  0.45351895825460753     
  0.40642677397995924     
  0.52915583698967228     
  0.38160694226541841     
  0.56274718033768667     
  0.20487768693472894     
  0.47165455048063415     
  0.31537645188207525     
  0.90900883259296861     
  0.14964288242708135     
  0.82001413730693584     
   3.5004791851112160E-002
  0.66150909540544189     
  0.25063621277540321     
  0.69169192865472695     
  0.85413347998374134     
  0.77971436027855667     
  0.35596939467506261     
  0.88420061399889482     
   9.8184967592695196E-002
  0.31793622800696758     
  0.57306184321460873     
   2.5469064264561622E-002
  0.71152789987809340     
  0.38064029286356083     
  0.72086564062077807     
  0.79268924047668943     
  0.42756300253275714     
  0.51783163741480054     
  0.20131061872897135     
  0.22025760413428541     
   4.3704299590135678E-002
  0.34554235498965602     
  0.47950972869865371     
  0.93485083691010396     
  0.19212354966839207     
   2.5817774280560594E-002
   7.6333837248756420E-002
  0.76708783404189651     
  0.32054166323020811     
  0.24274542687087655     
  0.34184765205190193     
   8.9456517444822595E-002
  0.60731051928423485     
   2.2330163830082080E-002
  0.53954926073291742     
  0.47582724149723599     
   5.0099176201200982E-002
   2.5137670216951714E-002
  0.22244222921841073     
  0.67183304299019919     
  0.45392308730666681     
   3.0719293326636161E-002
  0.70708651904891207     
  0.90538021453247675     
  0.56044176796519363     
   3.1384197315588988E-002
   8.5170488867574973E-002
  0.42380244913719894     
  0.80318168393871514     
  0.65056044694171178     
   5.1735620797783009E-002
  0.83048877983560354     
  0.81830981292126070     
   4.9032198725957189E-002
   5.0239411536744737E-002
  0.22134933281334285     
  0.17302628795654174     
  0.29123366749321172     
  0.60872778646470349     
  0.67733390970309459     
  0.98047466655877336     
  0.78628965813408147     
  0.12679195727034229     
  0.57773436100421416     
  0.51207592351423248     
  0.12903134290802501     
  0.76575110787460843     
  0.10543763748677162     
  0.76199534765745403     
  0.45839233225994552     
  0.43428672699323134     
  0.46107926707254687     
  0.90977033838028587     
  0.90604684710912164     
  0.97839231506550539     
  0.96914779689678798     
  0.31770932098212590     
  0.86985025930523308     
  0.95224451981595259     
   9.5699935716902440E-002
  0.97039510903719062     
  0.80018510914809748     
  0.70818171369137894     
  0.45127013264908178     
   3.2062321019761787E-002
  0.66126662750055321     
  0.87831989212173345     
   3.6694406416549849E-002
  0.65764751235635677     
   5.1049143795756827E-002
   3.1508282773913661E-002
  0.57778765199341242     
  0.21381658516736546     
  0.88395163878815908     
  0.72718948519543347     
  0.43210146861022214     
  0.95233524573671569     
  0.22717287064388217     
  0.21679856398652336     
  0.29965030463365039     
  0.13383541791688489     
   3.9774785623917966E-002
  0.77298167006974938     
  0.46314357631782938     
  0.66367354552894853     
  0.14141462286697581     
  0.56309396793435706     
  0.13535803916852135     
  0.98122117610131099     
  0.95906298672595702     
  0.41968139385136138     
  0.95755790405753416     
  0.21979402567182077     
   6.2217217340126973E-002
  0.64511081183737251     
  0.75278668734455179     
  0.95610088079026057     
  0.43895505195704609     
  0.89991497384271257     
  0.57169388601200588     
  0.87261021352628909     
  0.97197402020284795     
  0.93541118064921680     
  0.46662208473620947     
  0.33523691541509443     
  0.45157952679604524     
  0.41121683753971061     
  0.47321998483414940     
  0.54885103479590991     
  0.29683128395485953     
  0.62669222285725668     
  0.96456733378042825     
  0.23871557790958961     
  0.85320892610554366     
  0.55793512754227370     
  0.26725542388910195     
  0.60903530967738284     
  0.96734975471074380     
  0.49905468879121695     
  0.96044227079339883     
  0.29951963283349509     
  0.86673471466232566     
  0.35703619831713801     
  0.68174691120352071     
  0.40972395507139786     
  0.46932605559889656     
  0.28229475668564363     
   4.3457605984471979E-002
  0.53814175882171300     
  0.96641439551946562     
   3.5737784149335435E-002
  0.79535519465039772     
   3.5584886048575126E-002
   3.0127597343588424E-002
  0.20483589682210113     
  0.55516793371147211     
  0.54317015053221074     
   3.8385299815412194E-002
   9.3027989354939278E-002
  0.16706603927352684     
  0.75041890036812142     
  0.44733502890174454     
  0.21109978591755360     
  0.30568683988799883     
  0.11725441569133885     
  0.76038647046152308     
   5.4008341510591765E-002
  0.19102748700350883     
  0.67203145790460705     
  0.27126517906553022     
  0.40546954820726705     
  0.48503132176209257     
  0.68217888268169102     
  0.22804655944773947     
  0.33433988252976993     
  0.14780650809546156     
  0.83616041051263912     
  0.62130853817958087     
  0.58691123783911414     
   4.5100321393194427E-002
  0.96204194178374269     
  0.81435917931970847     
  0.74482835740766218     
  0.94986222658878872     
  0.23483285694569600     
  0.62136272409699733     
   2.7214088581915003E-002
  0.83582914316928159     
  0.39794319637280778     
  0.29405447305461108     
  0.62030004738201971     
  0.94738142751177190     
  0.93035214687327583     
  0.55755536558526286     