# vtk DataFile Version 3.0
Unstructured Grid
ASCII
DATASET UNSTRUCTURED_GRID
POINTS      4550 double
   0.0000000000000000        0.0000000000000000        0.0000000000000000     
   0.0000000000000000        0.0000000000000000        3.1250000000000000E-002
   0.0000000000000000        0.0000000000000000        6.2500000000000000E-002
   0.0000000000000000        0.0000000000000000        9.3750000000000000E-002
   0.0000000000000000        0.0000000000000000       0.12500000000000000     
   0.0000000000000000        0.0000000000000000       0.15625000000000000     
   0.0000000000000000        0.0000000000000000       0.18750000000000000     
   0.0000000000000000        0.0000000000000000       0.21875000000000000     
   0.0000000000000000        0.0000000000000000       0.25000000000000000     
   0.0000000000000000        0.0000000000000000       0.28125000000000000     
   0.0000000000000000        0.0000000000000000       0.31250000000000000     
   0.0000000000000000        0.0000000000000000       0.34375000000000000     
   0.0000000000000000        0.0000000000000000       0.37500000000000000     
   0.0000000000000000        0.0000000000000000       0.40625000000000000     
   0.0000000000000000        0.0000000000000000       0.43750000000000000     
   0.0000000000000000        0.0000000000000000       0.46875000000000000     
   0.0000000000000000        0.0000000000000000       0.50000000000000000     
   0.0000000000000000        0.0000000000000000       0.53125000000000000     
   0.0000000000000000        0.0000000000000000       0.56250000000000000     
   0.0000000000000000        0.0000000000000000       0.59375000000000000     
   0.0000000000000000        0.0000000000000000       0.62500000000000000     
   0.0000000000000000        0.0000000000000000       0.65625000000000000     
   0.0000000000000000        0.0000000000000000       0.68750000000000000     
   0.0000000000000000        0.0000000000000000       0.71875000000000000     
   0.0000000000000000        0.0000000000000000       0.75000000000000000     
   0.0000000000000000        0.0000000000000000       0.78125000000000000     
   0.0000000000000000        0.0000000000000000       0.81250000000000000     
   0.0000000000000000        0.0000000000000000       0.84375000000000000     
   0.0000000000000000        0.0000000000000000       0.87500000000000000     
   0.0000000000000000        0.0000000000000000       0.90625000000000000     
   0.0000000000000000        0.0000000000000000       0.93750000000000000     
   0.0000000000000000        0.0000000000000000       0.96875000000000000     
   0.0000000000000000        0.0000000000000000        1.0000000000000000     
   0.0000000000000000        3.1250000000000000E-002   0.0000000000000000     
   0.0000000000000000        3.1250000000000000E-002   1.0000000000000000     
   0.0000000000000000        4.2405763908650258E-002  0.66130451259029932     
   0.0000000000000000        4.3217879046206449E-002  0.14760011926069846     
   0.0000000000000000        4.6024266659168159E-002  0.44206785664549769     
   0.0000000000000000        4.6024266659168159E-002  0.52668214335450225     
   0.0000000000000000        5.0942866059175335E-002  0.10420737699075047     
   0.0000000000000000        5.2217891062431979E-002   5.2217891062431979E-002
   0.0000000000000000        5.2761163692563604E-002  0.38171595438393841     
   0.0000000000000000        5.5068963296708517E-002  0.59134852187332609     
   0.0000000000000000        5.6120114733671470E-002  0.75604724093930309     
   0.0000000000000000        5.6324478455296215E-002  0.24577786591727294     
   0.0000000000000000        5.7363532779538949E-002  0.87371196899699510     
   0.0000000000000000        5.7470675736370332E-002  0.18930699270579771     
   0.0000000000000000        5.8263363642804059E-002  0.81429895566577748     
   0.0000000000000000        6.0887870516095753E-002  0.69980397551580908     
   0.0000000000000000        6.2500000000000000E-002   0.0000000000000000     
   0.0000000000000000        6.2500000000000000E-002   1.0000000000000000     
   0.0000000000000000        6.4711269014538775E-002  0.48437500000000000     
   0.0000000000000000        6.9225209415320288E-002  0.33114145848017668     
   0.0000000000000000        7.0413861272891454E-002  0.92958613872710860     
   0.0000000000000000        7.9770917049368548E-002  0.64062500000000000     
   0.0000000000000000        8.3926071099233085E-002  0.28526314383622647     
   0.0000000000000000        8.7633724434323254E-002  0.42187500000000000     
   0.0000000000000000        8.7633724434323254E-002  0.54687500000000000     
   0.0000000000000000        8.8068181818181823E-002  0.14062500000000000     
   0.0000000000000000        9.3750000000000000E-002   0.0000000000000000     
   0.0000000000000000        9.3750000000000000E-002   1.0000000000000000     
   0.0000000000000000       0.10119805731737391       0.89303091974927329     
   0.0000000000000000       0.10210219776924923        7.0764746741824577E-002
   0.0000000000000000       0.10635988421955403       0.21957230430375799     
   0.0000000000000000       0.10740857139383649       0.84564547603995810     
   0.0000000000000000       0.10786461042496739       0.46474837701534855     
   0.0000000000000000       0.10968401176898811       0.73824428233438488     
   0.0000000000000000       0.10969220020645358       0.95550186482507926     
   0.0000000000000000       0.11544264275928678       0.79209098776725284     
   0.0000000000000000       0.11808901360852578       0.59663401005457384     
   0.0000000000000000       0.12041430467853043       0.67800854775312602     
   0.0000000000000000       0.12335307882294175       0.17407035117359601     
   0.0000000000000000       0.12500000000000000        0.0000000000000000     
   0.0000000000000000       0.12500000000000000        1.0000000000000000     
   0.0000000000000000       0.13002446100559079       0.36656116971438985     
   0.0000000000000000       0.13068181818181818       0.29687500000000000     
   0.0000000000000000       0.13145794935938171       0.52792875194736344     
   0.0000000000000000       0.13152145848091723       0.25413323966508028     
   0.0000000000000000       0.14029998073959937       0.12855113636363635     
   0.0000000000000000       0.14062500000000000       0.92003956561172884     
   0.0000000000000000       0.14354289369273243        4.6375564186635417E-002
   0.0000000000000000       0.14789203175728108       0.42415466219925380     
   0.0000000000000000       0.15101795183539601       0.48437500000000000     
   0.0000000000000000       0.15625000000000000        0.0000000000000000     
   0.0000000000000000       0.15625000000000000        1.0000000000000000     
   0.0000000000000000       0.15812483216952217       0.81572518579617204     
   0.0000000000000000       0.16016925006360749       0.76155969044955663     
   0.0000000000000000       0.16105769230769232       0.64062500000000000     
   0.0000000000000000       0.16498033923188599       0.56192540447066308     
   0.0000000000000000       0.16681364204580570       0.86373403073390376     
   0.0000000000000000       0.16773736985982415       0.70646802951986931     
   0.0000000000000000       0.17187500000000000        8.5227272727272721E-002
   0.0000000000000000       0.17187500000000000       0.17187500000000000     
   0.0000000000000000       0.17230065023518384       0.24130278401345417     
   0.0000000000000000       0.17524993035964637       0.33214160114056268     
   0.0000000000000000       0.17536724190152050       0.95339263300749488     
   0.0000000000000000       0.18456495164560949       0.51836722168265548     
   0.0000000000000000       0.18672094257804892       0.28630188376875909     
   0.0000000000000000       0.18750000000000000        0.0000000000000000     
   0.0000000000000000       0.18750000000000000        1.0000000000000000     
   0.0000000000000000       0.19182611979586967        4.4839049992879139E-002
   0.0000000000000000       0.19736660067068895       0.38449523208871811     
   0.0000000000000000       0.19991704497100604       0.20641827567287876     
   0.0000000000000000       0.20249993440656938       0.12855113636363635     
   0.0000000000000000       0.20312500000000000       0.79687500000000000     
   0.0000000000000000       0.20592650903014437       0.91616923083075008     
   0.0000000000000000       0.20708080019865122       0.60347138662486799     
   0.0000000000000000       0.20881174380662740       0.45118373807264039     
   0.0000000000000000       0.21148737705495707       0.74054376865132920     
   0.0000000000000000       0.21407117136637366       0.65921232651476624     
   0.0000000000000000       0.21875000000000000        0.0000000000000000     
   0.0000000000000000       0.21875000000000000        1.0000000000000000     
   0.0000000000000000       0.22621916310275669       0.26036437453168837     
   0.0000000000000000       0.22693109923009044       0.84817608833212677     
   0.0000000000000000       0.22934361368355521       0.53497275561808477     
   0.0000000000000000       0.23291828960141181        6.3296820644412860E-002
   0.0000000000000000       0.23549788065273725       0.32831789642150322     
   0.0000000000000000       0.24440883944936315       0.20614550385605404     
   0.0000000000000000       0.25000000000000000        0.0000000000000000     
   0.0000000000000000       0.25000000000000000        1.0000000000000000     
   0.0000000000000000       0.25308036536593070       0.69963757175059260     
   0.0000000000000000       0.25433452960858166       0.94422008612362063     
   0.0000000000000000       0.25438783372307811       0.39434016470855998     
   0.0000000000000000       0.25455601108832415       0.63866292690521120     
   0.0000000000000000       0.25542104790070941       0.12478291206971995     
[...]
CELL_DATA     20981
SCALARS pressure double 1
LOOKUP_TABLE default
  0.77336650589854516     
  0.69964554262225664     
  0.16183452589729688     
  0.53957074820769790     
  0.25181024409437475     
   3.9207547162936576E-002
   3.7977444435231933E-002
  0.65454861778880302     
  0.67579760702287983     
   7.4509055652020359E-002
  0.34665399300446431     
  0.90118145749610779     
  0.15872401453219823     
  0.96924708771618240     
  0.13445182338011483     
  0.32497296218239852     
  0.84267573355277026     
  0.95705894982989281     
  0.96884756132702943     
  0.79815648120850291     
  0.94303550107777256     
  0.33616372866773686     
  0.35214190640083881     
   4.9360879277039221E-002
   2.9791705652910647E-002
  0.32082628825652171     
  0.30087833286015836     
  0.37220917740616555     
  0.41077181275718738     
  0.10867251461507110     
   4.0076542174335955E-002
  0.95088058463590763     
  0.34235687349285121     
  0.81157469903186907     
  0.69112112844799856     
  0.86672970067044397     
  0.36798209563807494     
  0.91780749707923903     
  0.95154898036220581     
  0.97450802347617393     
  0.43292662836663859     
  0.60659313227822032     
  0.85933886184153585     
  0.87595684044798716     
  0.24181050133793278     
  0.88368447973229980     
  0.94426346644967862     
  0.41951957109522198     
  0.96203689288077465     
  0.22381467880056896     
  0.68230020082293819     
  0.34158373588599911     
  0.21684037053814134     
  0.32374255635386379     
  0.87460125290541446     
  0.85111380204980847     
  0.70054797187684070     
  0.21493047235961604     
  0.75111898937015598     
  0.54990587127836799     
  0.26290369444907535     
  0.66610541461629402     
  0.23815294558803216     
  0.95129903868978660     
  0.42081773044645154     
  0.93041151132525557     
  0.19426326527275276     
  0.12936212098193248     
  0.80492643524829532     
   8.0728604232893991E-002
   4.9652266990275126E-002
   4.5464423870107289E-002
  0.15089297033366061     
  0.44936618172430914     
  0.95698949379664699     
  0.56849227664924673     
  0.39651979602493820     
  0.76354517710941650     
  0.48501667508430807     
  0.41733966919026722     
  0.65859285915120447     
  0.81075649110937287     
   5.0562291333810877E-002
  0.26873186100870727     
  0.17290542279183513     
  0.49715629651604309     
  0.52165953256279385     
  0.17930653327287258     
  0.48673853188057159     
  0.40645437929977191     
  0.42759316583624363     
  0.95299053424658320     
  0.44360873253122413     
  0.82505163962770589     
   3.8600248298621673E-002
  0.10390403475929356     
  0.85646741935892912     
  0.62087254246908918     
  0.33247420689360241     
  0.80605487585965474     
  0.52512120750725733     
  0.96776169231886033     
  0.55066856026501343     
  0.40634546771227886     
   9.0972506239472298E-002
  0.89140174955466378     
  0.97015660415226979     
  0.41745933167507837     
  0.97012911275799751     
  0.19055907567397884     
  0.38005779783430677     
  0.71115516093014808     
   1.5621631946959282E-002
  0.51552068410165652     
  0.29671132184951099     
  0.90628714920171716     
  0.15222745619343858     
  0.74718099107930691     
  0.96378828432199659     
  0.27911359634088367     
  0.64774522598248629     
  0.76418873499641760     
  0.26148680575587735     
  0.74867639531984731     
  0.20288565598806593     
  0.68143083514121983     
  0.70345889516924931     
  0.65192058945712084     
  0.28147643512793236     
  0.41095525373623831     
  0.31911640882419318     
  0.24266591353347566     
  0.41665976390362253     
  0.80188849025116260     
  0.96511935394098558     
  0.71345864501265233     
  0.23241833730150266     
   4.6762829444024441E-002
  0.31948449772206572     
  0.73539010230378787     
  0.57509450037252152     
  0.18993491428198306     
  0.96679900465649460     
  0.20265831158516884     
  0.14488097459666005     
  0.13019823565852132     
  0.33919830666859513     
  0.90279966956441582     
  0.52213097466043257     
  0.45360430833962889     
  0.15475100230281202     
  0.97095080118368060     
  0.96541531486029519     
  0.26931041405526013     
  0.95194495716390704     
  0.76704298906164603     
  0.90821709341613177     
  0.25319551354463699     
  0.29790511324257862     
  0.88903981995878467     
  0.95139899113613091     
  0.12163069208544532     
  0.30593921196304830     
  0.53673457702493232     
  0.24774802283398620     
  0.98437479615872747     
  0.49307730367278124     
   4.8160283971445395E-002
  0.19950726530852386     
  0.96287619382704648     
  0.55969458068029843     
  0.42099811494248074     
  0.51997227711441585     
   3.5603868480473401E-002
  0.46262940959088511     
  0.46145032156939580     
  0.51205308992905918     
  0.93206303594540663     
   2.7934924364603892E-002
  0.35574684669715217     
  0.90625639749837972     
  0.87382753011388914     
  0.55407141615863520     
  0.77244137596250517     
  0.33615220468989848     
  0.85779448403252889     
  0.29616973243077893     
  0.58912641559468337     
  0.90103978982588229     
  0.52869340574186818     
  0.86449016101958687     
   5.8883411594925973E-002
   4.6479100530164491E-002
  0.37493301955868619     
  0.87848765624927938     
  0.27611543754055373     
  0.33052363307868732     
  0.40720481305504702     
  0.68763339848526406     
  0.72205333979956554     
  0.11012412579456402     
  0.67923971189463006     
  0.43077132559887860     
  0.83679690837907572     
  0.39046663529987452     
   4.3603267164577880E-002
   7.7784529586788789E-002
  0.23627404252942638     
  0.34908259449332496     
  0.35055751237845084     
   3.9187832704149966E-002
  0.74287003078151659     
  0.97305531846961857     
  0.61255353579841032     
  0.44963117705028116     
  0.23631478053680144     
  0.87009784755237818     
  0.58237567931226542     
  0.91402261574295063     
  0.16584102713568513     
  0.71922078479354490     
  0.26750774355168322     
  0.51202016195145950     
   1.5586809493307164E-002
  0.16262712608175284     
  0.67007260339231056     
   5.6896336461795399E-002
  0.42314298605004796     
   3.2496060411484229E-002
  0.94813560303935274     
  0.71575821249933869     
  0.52022128045002158     
  0.53759619696057670     
  0.62888574851632273     
  0.55691153165179075     
  0.10642606001588291     
  0.31274634407646312     
  0.63082719420270483     
  0.47727701694566810     
   9.1247522391239136E-002
  0.83296741713911038     
   3.2467182413958733E-002
  0.31532928782223285     
  0.80699057568037502     
  0.78720839781026530     
  0.42380057597826137     
  0.39376503858204248     
  0.44189097674323130     
   4.3099917749416343E-002
  0.33472047533376115     
  0.96358087549894167     
  0.90965835961429375     
   2.8569313674738795E-002
   3.1678410691211710E-002
  0.17181353838582966     
   2.6160302980327749E-002
  0.40829692776171839     
  0.33089469754576178     
  0.69767331199371307     
  0.33676413866560173     
  0.87029519581501313     
  0.20314662701563060     
  0.22515367426772451     
  0.25114375198499728     
   3.3520977113453920E-002
  0.10522748997836194     
  0.73537410661181601     
  0.15884190720370911     
  0.78580250025519527     
  0.95340200612908022     
  0.59276456521005272     
   2.5304474993574137E-002
  0.64443347856982192     
  0.76779008293634188     
  0.51253975735281898     
  0.78364916455496103     
  0.50716041054469885     
  0.71379776678218509     
  0.61307865317618471     
  0.33535983546971604     
  0.66112609945901590     
   3.2447287163438872E-002
   5.3772261783936813E-002
  0.29629610908447801     
  0.98107497617666761     
  0.94430180171416433     
  0.35160686535482050     
  0.36094279843837040     
   3.8571057330012849E-002
  0.68146500170809865     
  0.95452547770479823     
   2.5904682399554572E-002
  0.48440351279148863     
  0.93944975973254352     
  0.24280842007443126     
  0.42933656221006422     
  0.27692401614185713     
  0.33249147406963619     
  0.98437098003247447     
  0.64190787061554355     
  0.12516933786446707     
  0.16737421446120374     
  0.53173830199842009     
  0.93033700929908436     
  0.37977995636694240     
  0.40268290010331709     
  0.73688866343516257     
   5.4017972776758558E-002
  0.83410849638135220     
  0.97706109004037167     
  0.97805749244910589     
  0.14831781822463977     
   3.7489054403011333E-002
  0.48242631774609102     
  0.80527558812018618     
  0.46774245765585565     
  0.14027039066475697     
   1.5614060318860255E-002
  0.31235434940233664     
  0.22902110998892566     
  0.88920290602379559     
  0.88344419609542613     
   6.7601705573850424E-002
  0.42373974052289343     
   4.6416616708746472E-002
  0.64644569437799715     
  0.15229345481523143     
   5.0280661759310258E-002
  0.73955959016830042     
  0.76933624523362487     
  0.24539535676178451     
  0.60288933327279826     
  0.47863804908101221     
  0.97269313793174284     
  0.74761746807688434     
  0.68192000376225248     
   3.8155173238515576E-002
  0.20673201111276329     
  0.95547046185136619     
  0.43427717582142566     
  0.43460026925108397     
  0.35855076937504493     
  0.76874355729383981     
  0.53993938830254606     
  0.27666905826705945     
  0.11286583885919339     
  0.52947781329132859     
  0.44450698852234283     
  0.41124117342195526     
  0.67267074696715412     
  0.87885012264629536     
  0.88627382751588013     
  0.34654072618730536     
  0.25510855199711674     
  0.60086932802687176     
  0.19902964661908168     
  0.18994280978850142     
  0.98437245854034239     
  0.55149819073632911     
  0.60443044106995369     
  0.69038269038796551     
  0.22092570279667903     
  0.89412745931204762     
  0.27501189123555170     
  0.74107539516621990     
  0.56403162936645845     
  0.40241866303655643     
  0.77464757576221621     
  0.96964406010083182     
  0.66427904862370724     
  0.96984141207918506     
  0.36577527718465525     
  0.73235520011836130     
  0.54039911769063897     
  0.20864375768314966     
  0.88428340381126302     
  0.81012129852522008     
  0.71878787636196151     
  0.18137049013066242     
  0.70504667235234297     
  0.36019867711596126     
  0.83249436541550370     
  0.74019366846665091     
  0.86586522105393637     
  0.53818064565652302     
  0.23787321838496753     
  0.76804009623761382     
  0.73493291750338441     
  0.97302172732870673     
  0.95599830494465365     
  0.95155185554920418     
  0.17960169434551734     
  0.82907591971007510     
   5.5251207717619676E-002
  0.80677414279908777     
   4.5665778453677607E-002
  0.44804692632377663     
  0.76767286221889597     
  0.95195713782724500     
  0.37888208844990640     
  0.77359395478920900     
  0.98440075727349430     
  0.96054884002146557     
  0.61399971212377191     
   3.9864766929597326E-002
  0.12227084551455780     
  0.60143824208642527     
  0.77993803115544702     
  0.88794091593325586     
  0.71590468733258183     
  0.11892544452920648     
  0.31188634539957194     
  0.72554239652644370     
  0.28366186917328995     
  0.89419381613255344     
  0.72967831819134299     
   9.5635829848463694E-002
  0.40122318851788868     
   4.2614189017358139E-002
  0.71298532481458021     
  0.34768703927751204     
  0.39056544403816379     
  0.50480782678405933     
  0.12750027041331780     
  0.28943549599376256     
  0.39038439778016898     
  0.86362104951036522     
  0.53270127006202483     
   4.4224742964217342E-002
  0.94110389996356159     
   4.2333901495655711E-002
  0.15950072069288501     
  0.68902021541881220     
  0.16608930323518190     
  0.19599777032503379     
  0.90065054739833328     
   9.0791515344686741E-002
  0.50647753948863294     
  0.78753502184490543     
  0.86298090688792284     
   4.4791935479307356E-002
  0.56164439843782377     
  0.22013029899559378     
  0.31114256113293515     
  0.80786600837861233     
  0.12499234075407324     
  0.64304747187100064     
   4.3209650984683122E-002
  0.68101393260585585     
  0.75110204510068290     
  0.37039269839519218     
  0.18862678606524791     
  0.95145763072225520     
  0.41969697229027692     
  0.35947960871528112     
  0.90321486987809896     
  0.66438002619629977     
  0.87726155515629334     
   2.3563020190760495E-002
  0.75484188399330310     
  0.97445196803750789     
  0.16902008676731758     
  0.15555641942384013     
  0.59994155505016300     
  0.73231020173265104     
  0.45965125887025987     
  0.97094659018344198     
  0.23429604729321646     
  0.94804964663712299     
  0.32281507292992856     
  0.51965526268535600     
  0.70371241117094085     
   1.5619017969138673E-002
   4.1898770821619129E-002
  0.57709545976356691     
  0.95495069396558419     
  0.38097868883150598     
  0.40062572194570950     
  0.27448926664894646     
  0.63741062717787011     
  0.90460996479738665     
  0.61020403090355924     
  0.82480501463010114     
  0.42349433932781211     
   3.5203423054770651E-002
  0.22508340324529619     
  0.33035663316268382     
  0.64971878885400480     
  0.81871357367595499     
  0.62284622131395939     
  0.88750880004304955     
  0.41344239223500534     
  0.15542793183016912     
  0.61672826679009873     
   3.9257590748815567E-002
  0.87748658538407776     
  0.81823037516701913     
  0.14274376210862780     
  0.12774604007695989     
  0.60668245658614806     
  0.72711320285645742     
  0.72826160991191413     
  0.23653274636954405     
  0.95664890676340608     
  0.67368381524257037     
  0.87539188020715730     
  0.21402621034077521     
  0.18077163851058309     
  0.66706684585311182     
  0.56024786590110609     
  0.63344606089323008     
  0.69037719142345266     
  0.48548830003257981     
   2.2386255445171369E-002
  0.18875962340418503     
  0.93873924610045867     
   3.2859695036699846E-002
  0.96178878033687376     
  0.55287430453163211     
  0.32070981556762196     
  0.73083040447391689     
  0.12853258143939245     
  0.11744577514550701     
  0.51194097088168722     
  0.89298059350387171     
  0.94167121407184395     
  0.92752914739981285     
  0.19886854954569630     
   3.2485247467613235E-002
  0.96386215096822059     
  0.97383348758133659     
  0.73721871509014625     
   3.9029773864408972E-002
  0.45325335384213611     
  0.40622320783167870     
  0.52910777762578531     
  0.38120362499240612     
  0.56259692043293841     
  0.20485820857998319     
  0.47079505379171060     
  0.31535057157108443     
  0.90901962288411853     
  0.14959609277850858     
  0.82001687843961002     
   3.4972045076071726E-002
  0.66120899943210398     
  0.25053959924460112     
  0.69168517917444072     
  0.85413743002224107     
  0.77968915726170795     
  0.35591701753733251     
  0.88436529121362040     
   9.8177528239925135E-002
  0.31758338366441519     
  0.57305353672304893     
   2.5466807445485441E-002
  0.71168631621820688     
  0.38057791636533228     
  0.72085868565775968     
  0.79271782801392199     
  0.42752452241326022     
  0.51776123478155867     
  0.20126956559163336     
  0.22024685766638782     
   4.3668745517096069E-002
  0.34553094359459630     
  0.47950014625244841     
  0.93487043963919858     
  0.19200566333872188     
   2.5816746072791035E-002
   7.6329347204033407E-002
  0.76707367216603184     
  0.32046881634806756     
  0.24273177345435862     
  0.34178106074059322     
   8.9452633824564295E-002
  0.60729649259031071     
   2.2328113648895177E-002
  0.53948807451431036     
  0.47581587538072123     
   5.0074791863932100E-002
   2.5135352877589043E-002
  0.22232537710642225     
  0.67182657417182368     
  0.45388776941325032     
   3.0715403204628691E-002
  0.70716267286475076     
  0.90548045038871572     
  0.55995899248631131     
   3.1376637695258280E-002
   8.5166528267334812E-002
  0.42377771521973956     
  0.80314320445369902     
  0.65054970275458690     
   5.1730572962074992E-002
  0.83049128693209773     
  0.81839079708505991     
   4.9016120585878932E-002
   5.0206837718681632E-002
  0.22123915643750472     
  0.17286121148637318     
  0.29120920079796470     
  0.60872113680134765     
  0.67729574537014747     
  0.98048288435422104     
  0.78626580867178997     
  0.12670686033614928     
  0.57770230715376225     
  0.51206848887554601     
  0.12902593621513811     
  0.76575350460288838     
  0.10539783678642073     
  0.76200083607113367     
  0.45835483742403310     
  0.43427717631222817     
  0.46102439379311111     
  0.90978113318549592     
  0.90601899730754354     
  0.97839068125443207     
  0.96914572372759256     
  0.31751017251039615     
  0.87014547762270922     
  0.95224040237575491     
   9.5687122503731140E-002
  0.97040347359339174     
  0.80018552823916311     
  0.70797799280503138     
  0.45125732322177503     
   3.2055217808611550E-002
  0.66125081201109714     
  0.87830871504254338     
   3.6659479281724819E-002
  0.65756074264172859     
   5.1046511706127076E-002
   3.1488285053665799E-002
  0.57475186058544492     
  0.21380089329440669     
  0.88397076480618531     
  0.72694452591709713     
  0.43207346919027223     
  0.95235711914498788     
  0.22697136239757718     
  0.21657620693723095     
  0.29964143111351954     
  0.13371560024897147     
   3.9770681705671447E-002
  0.77298969284920727     
  0.46308150759136463     
  0.66364397855669011     
  0.14138668652435701     
  0.56186951301822596     
  0.13529283868048395     
  0.98121981001505765     
  0.95907850430623209     
  0.41967174675607150     
  0.95755625654619669     
  0.21976600662594253     
   6.2159987699305981E-002
  0.64510090822067767     
  0.75276997634755927     
  0.95609815459592984     
  0.43893154971656789     
  0.89987669227982103     
  0.57170122534720236     
  0.87272580786469311     
  0.97197349843978476     
  0.93540591995417288     
  0.46644979148195970     
  0.33522686920788658     
  0.45154522650569279     
  0.41113898736594157     
  0.47320000440590282     
  0.54884396282406434     
  0.29682257742153118     
  0.62666258426815336     
  0.96457789873623900     
  0.23859895308476042     
  0.85349903747709444     
  0.55733267557013344     
  0.26719124346094103     
  0.60893056675598234     
  0.96735248592804679     
  0.49890979572695143     
  0.96044266354904717     
  0.29920346145065058     
  0.86675008966966482     
  0.35666414466909696     
  0.68190611845213889     
  0.40928653090829376     
  0.46928161419009840     
  0.28225459413875120     
   4.3453996258951910E-002
  0.53811306190468566     
  0.96641573363219746     
   3.5727023339195411E-002
  0.79529933617726223     
   3.5581490302944427E-002
   3.0124652272042418E-002
  0.20477189262589912     
  0.55512152837203865     
  0.54314696366932758     
   3.8381518570802478E-002
   9.2959263232642378E-002
  0.16693748256415278     
  0.75042533420283042     
  0.44662862784364721     
  0.21108045220323196     
  0.30565012507907180     
  0.11720726642522789     
  0.76038309086686751     
   5.3965767716594761E-002
  0.19099551345854415     
  0.67169011306664550     
  0.27120337905473807     
  0.40538780769872335     
  0.48499556365282520     
  0.68217955402964747     
  0.22801978647274571     
  0.33424020728743531     
  0.14776901504563866     
  0.83616812527752871     
  0.62125168554623600     
  0.58645656064817109     
   4.5097739733845316E-002
  0.96204027780472867     
  0.81435657794733562     
  0.74482488656520085     
  0.94985814537091617     
  0.23458723902443082     
  0.62071450310692555     
   2.7199155491943450E-002
  0.83581130093970324     
  0.39769031747766254     
  0.29401059705640553     
  0.62037859656542205     
  0.94748603003410203     
  0.93038781088473010     
  0.55754861468225481     