# vtk DataFile Version 3.0
Unstructured Grid
ASCII
DATASET UNSTRUCTURED_GRID
POINTS      4550 double
   0.0000000000000000        0.0000000000000000        0.0000000000000000     
   0.0000000000000000        0.0000000000000000        3.1250000000000000E-002
   0.0000000000000000        0.0000000000000000        6.2500000000000000E-002
   0.0000000000000000        0.0000000000000000        9.3750000000000000E-002
   0.0000000000000000        0.0000000000000000       0.12500000000000000     
   0.0000000000000000        0.0000000000000000       0.15625000000000000     
   0.0000000000000000        0.0000000000000000       0.18750000000000000     
   0.0000000000000000        0.0000000000000000       0.21875000000000000     
   0.0000000000000000        0.0000000000000000       0.25000000000000000     
   0.0000000000000000        0.0000000000000000       0.28125000000000000     
   0.0000000000000000        0.0000000000000000       0.31250000000000000     
   0.0000000000000000        0.0000000000000000       0.34375000000000000     
   0.0000000000000000        0.0000000000000000       0.37500000000000000     
   0.0000000000000000        0.0000000000000000       0.40625000000000000     
   0.0000000000000000        0.0000000000000000       0.43750000000000000     
   0.0000000000000000        0.0000000000000000       0.46875000000000000     
   0.0000000000000000        0.0000000000000000       0.50000000000000000     
   0.0000000000000000        0.0000000000000000       0.53125000000000000     
   0.0000000000000000        0.0000000000000000       0.56250000000000000     
   0.0000000000000000        0.0000000000000000       0.59375000000000000     
   0.0000000000000000        0.0000000000000000       0.62500000000000000     
   0.0000000000000000        0.0000000000000000       0.65625000000000000     
   0.0000000000000000        0.0000000000000000       0.68750000000000000     
   0.0000000000000000        0.0000000000000000       0.71875000000000000     
   0.0000000000000000        0.0000000000000000       0.75000000000000000     
   0.0000000000000000        0.0000000000000000       0.78125000000000000     
   0.0000000000000000        0.0000000000000000       0.81250000000000000     
   0.0000000000000000        0.0000000000000000       0.84375000000000000     
   0.0000000000000000        0.0000000000000000       0.87500000000000000     
   0.0000000000000000        0.0000000000000000       0.90625000000000000     
   0.0000000000000000        0.0000000000000000       0.93750000000000000     
   0.0000000000000000        0.0000000000000000       0.96875000000000000     
   0.0000000000000000        0.0000000000000000        1.0000000000000000     
   0.0000000000000000        3.1250000000000000E-002   0.0000000000000000     
   0.0000000000000000        3.1250000000000000E-002   1.0000000000000000     
   0.0000000000000000        4.2405763908650258E-002  0.66130451259029932     
   0.0000000000000000        4.3217879046206449E-002  0.14760011926069846     
   0.0000000000000000        4.6024266659168159E-002  0.44206785664549769     
   0.0000000000000000        4.6024266659168159E-002  0.52668214335450225     
   0.0000000000000000        5.0942866059175335E-002  0.10420737699075047     
   0.0000000000000000        5.2217891062431979E-002   5.2217891062431979E-002
   0.0000000000000000        5.2761163692563604E-002  0.38171595438393841     
   0.0000000000000000        5.5068963296708517E-002  0.59134852187332609     
   0.0000000000000000        5.6120114733671470E-002  0.75604724093930309     
   0.0000000000000000        5.6324478455296215E-002  0.24577786591727294     
   0.0000000000000000        5.7363532779538949E-002  0.87371196899699510     
   0.0000000000000000        5.7470675736370332E-002  0.18930699270579771     
   0.0000000000000000        5.8263363642804059E-002  0.81429895566577748     
   0.0000000000000000        6.0887870516095753E-002  0.69980397551580908     
   0.0000000000000000        6.2500000000000000E-002   0.0000000000000000     
   0.0000000000000000        6.2500000000000000E-002   1.0000000000000000     
   0.0000000000000000        6.4711269014538775E-002  0.48437500000000000     
   0.0000000000000000        6.9225209415320288E-002  0.33114145848017668     
   0.0000000000000000        7.0413861272891454E-002  0.92958613872710860     
   0.0000000000000000        7.9770917049368548E-002  0.64062500000000000     
   0.0000000000000000        8.3926071099233085E-002  0.28526314383622647     
   0.0000000000000000        8.7633724434323254E-002  0.42187500000000000     
   0.0000000000000000        8.7633724434323254E-002  0.54687500000000000     
   0.0000000000000000        8.8068181818181823E-002  0.14062500000000000     
   0.0000000000000000        9.3750000000000000E-002   0.0000000000000000     
   0.0000000000000000        9.3750000000000000E-002   1.0000000000000000     
   0.0000000000000000       0.10119805731737391       0.89303091974927329     
   0.0000000000000000       0.10210219776924923        7.0764746741824577E-002
   0.0000000000000000       0.10635988421955403       0.21957230430375799     
   0.0000000000000000       0.10740857139383649       0.84564547603995810     
   0.0000000000000000       0.10786461042496739       0.46474837701534855     
   0.0000000000000000       0.10968401176898811       0.73824428233438488     
   0.0000000000000000       0.10969220020645358       0.95550186482507926     
   0.0000000000000000       0.11544264275928678       0.79209098776725284     
   0.0000000000000000       0.11808901360852578       0.59663401005457384     
   0.0000000000000000       0.12041430467853043       0.67800854775312602     
   0.0000000000000000       0.12335307882294175       0.17407035117359601     
   0.0000000000000000       0.12500000000000000        0.0000000000000000     
   0.0000000000000000       0.12500000000000000        1.0000000000000000     
   0.0000000000000000       0.13002446100559079       0.36656116971438985     
   0.0000000000000000       0.13068181818181818       0.29687500000000000     
   0.0000000000000000       0.13145794935938171       0.52792875194736344     
   0.0000000000000000       0.13152145848091723       0.25413323966508028     
   0.0000000000000000       0.14029998073959937       0.12855113636363635     
   0.0000000000000000       0.14062500000000000       0.92003956561172884     
   0.0000000000000000       0.14354289369273243        4.6375564186635417E-002
   0.0000000000000000       0.14789203175728108       0.42415466219925380     
   0.0000000000000000       0.15101795183539601       0.48437500000000000     
   0.0000000000000000       0.15625000000000000        0.0000000000000000     
   0.0000000000000000       0.15625000000000000        1.0000000000000000     
   0.0000000000000000       0.15812483216952217       0.81572518579617204     
   0.0000000000000000       0.16016925006360749       0.76155969044955663     
   0.0000000000000000       0.16105769230769232       0.64062500000000000     
   0.0000000000000000       0.16498033923188599       0.56192540447066308     
   0.0000000000000000       0.16681364204580570       0.86373403073390376     
   0.0000000000000000       0.16773736985982415       0.70646802951986931     
   0.0000000000000000       0.17187500000000000        8.5227272727272721E-002
   0.0000000000000000       0.17187500000000000       0.17187500000000000     
   0.0000000000000000       0.17230065023518384       0.24130278401345417     
   0.0000000000000000       0.17524993035964637       0.33214160114056268     
   0.0000000000000000       0.17536724190152050       0.95339263300749488     
   0.0000000000000000       0.18456495164560949       0.51836722168265548     
   0.0000000000000000       0.18672094257804892       0.28630188376875909     
   0.0000000000000000       0.18750000000000000        0.0000000000000000     
   0.0000000000000000       0.18750000000000000        1.0000000000000000     
   0.0000000000000000       0.19182611979586967        4.4839049992879139E-002
   0.0000000000000000       0.19736660067068895       0.38449523208871811     
   0.0000000000000000       0.19991704497100604       0.20641827567287876     
   0.0000000000000000       0.20249993440656938       0.12855113636363635     
   0.0000000000000000       0.20312500000000000       0.79687500000000000     
   0.0000000000000000       0.20592650903014437       0.91616923083075008     
   0.0000000000000000       0.20708080019865122       0.60347138662486799     
   0.0000000000000000       0.20881174380662740       0.45118373807264039     
   0.0000000000000000       0.21148737705495707       0.74054376865132920     
   0.0000000000000000       0.21407117136637366       0.65921232651476624     
   0.0000000000000000       0.21875000000000000        0.0000000000000000     
   0.0000000000000000       0.21875000000000000        1.0000000000000000     
   0.0000000000000000       0.22621916310275669       0.26036437453168837     
   0.0000000000000000       0.22693109923009044       0.84817608833212677     
   0.0000000000000000       0.22934361368355521       0.53497275561808477     
   0.0000000000000000       0.23291828960141181        6.3296820644412860E-002
   0.0000000000000000       0.23549788065273725       0.32831789642150322     
   0.0000000000000000       0.24440883944936315       0.20614550385605404     
   0.0000000000000000       0.25000000000000000        0.0000000000000000     
   0.0000000000000000       0.25000000000000000        1.0000000000000000     
   0.0000000000000000       0.25308036536593070       0.69963757175059260     
   0.0000000000000000       0.25433452960858166       0.94422008612362063     
   0.0000000000000000       0.25438783372307811       0.39434016470855998     
   0.0000000000000000       0.25455601108832415       0.63866292690521120     
   0.0000000000000000       0.25542104790070941       0.12478291206971995     
[...]
CELL_DATA     20981
SCALARS pressure double 1
LOOKUP_TABLE default
  0.77341677516687468     
  0.69968333739466548     
  0.16212074675926041     
  0.53965192827518149     
  0.25193888906060424     
   3.9237949610167279E-002
   3.7992103347700958E-002
  0.65462443257666703     
  0.67583790003425748     
   7.4533450129187925E-002
  0.34671402139755286     
  0.90120019155313513     
  0.15880458918419299     
  0.96925379770960796     
  0.13458267665474447     
  0.32565853198118400     
  0.84257750264343845     
  0.95706723137564031     
  0.96879590823370498     
  0.79734145267547674     
  0.94290651652868995     
  0.33690748194375753     
  0.35236558691512104     
   4.9378378367328064E-002
   2.9818656455715468E-002
  0.32088374166802858     
  0.30107186514107726     
  0.37227403332853420     
  0.41086401751871843     
  0.10883440429302113     
   4.0105134342504303E-002
  0.95086144759850488     
  0.34320167272273222     
  0.81154169878941518     
  0.69111784121336195     
  0.86640767832436671     
  0.36909087351346859     
  0.91782543608531830     
  0.95155681519794422     
  0.97451243696010859     
  0.43318354157641292     
  0.60670866368090914     
  0.85937026085929025     
  0.87575800420776340     
  0.24241659242171615     
  0.88367899327218036     
  0.94426940341467813     
  0.41966323128943395     
  0.96203530397158299     
  0.22402151824725960     
  0.68235169356516112     
  0.34177805040842252     
  0.21729047646767996     
  0.32383670034405471     
  0.87454516604694787     
  0.85020039917629919     
  0.70059804323383179     
  0.21499726381800310     
  0.75118774986175474     
  0.55071984639839222     
  0.26296769617913196     
  0.66617296151253802     
  0.23856768787038496     
  0.95130450616393625     
  0.42163691089787059     
  0.93021815188779200     
  0.19458164902075101     
  0.12945205735637977     
  0.80373986477760884     
   8.0780051309494852E-002
   4.9756950476021425E-002
   4.5555647774186622E-002
  0.15116328235125143     
  0.44962650582065361     
  0.95689335200188197     
  0.56857473390696733     
  0.39661010070293007     
  0.76296199295231260     
  0.48660746395748006     
  0.41812970109019953     
  0.65863543935100710     
  0.81051985228373824     
   5.0593058280815721E-002
  0.26926552764028711     
  0.17328829832830359     
  0.49733920872712001     
  0.52238017588436236     
  0.17937521999754041     
  0.48690400811986556     
  0.40656912952403135     
  0.42780118138917977     
  0.95300038882132654     
  0.44399283981784948     
  0.82504961998854576     
   3.8667669248912344E-002
  0.10411624503543590     
  0.85645694865691868     
  0.62094928354317758     
  0.33264034158509059     
  0.80605317209961092     
  0.52547363042888762     
  0.96776683695844989     
  0.55113298605123706     
  0.40709762528688204     
   9.1153025377685992E-002
  0.89141483886695416     
  0.97015803482846175     
  0.41752795225688677     
  0.97013597186613509     
  0.19060873740014883     
  0.38014534312407072     
  0.70824365618107943     
   1.5624449254848613E-002
  0.51561016503511592     
  0.29684669470837111     
  0.90619949603199401     
  0.15248338482331492     
  0.74721970956901251     
  0.96379643314023278     
  0.27953690346280841     
  0.64782539118140026     
  0.76158289736138052     
  0.26154983021315936     
  0.74871150919001639     
  0.20296975794002528     
  0.68146128677447526     
  0.70350779749567383     
  0.65198339606199440     
  0.28153409577170951     
  0.41101927907451374     
  0.31994930642522956     
  0.24290197077629661     
  0.41678146865860255     
  0.80191716188361850     
  0.96509571875488187     
  0.71349728091476494     
  0.23249493653944586     
   4.6777160302150143E-002
  0.31982901528610763     
  0.73544886581312086     
  0.57550841108158934     
  0.19036265436988251     
  0.96658425454211561     
  0.20307213048242767     
  0.14490716974808215     
  0.13039853356936407     
  0.33926139565271535     
  0.90281615388981840     
  0.52219314279133977     
  0.45374808948972911     
  0.15498420167236024     
  0.97091157157171282     
  0.96540849043872223     
  0.26935463908495355     
  0.95195230629798055     
  0.76708987384843830     
  0.90823834647464807     
  0.25372042931626898     
  0.29866875252893565     
  0.88906507003656765     
  0.95139636449293963     
  0.12173188458183022     
  0.30604893658084364     
  0.53718305733300686     
  0.24785073278049888     
  0.98437459707453379     
  0.49345016313137913     
   4.8189585798994308E-002
  0.19961010852602268     
  0.96287569262332273     
  0.55976446024181126     
  0.42174919916397685     
  0.52021828472253229     
   3.5619686071170588E-002
  0.46278308383905986     
  0.46150179924224932     
  0.51214142534616525     
  0.93206930415615452     
   2.7943355125800914E-002
  0.35581858262889071     
  0.90626987677302762     
  0.87371215413278036     
  0.55458165729353825     
  0.77247999885891561     
  0.33627969076765485     
  0.85757947402341994     
  0.29676923083722562     
  0.58962994843379002     
  0.90094007952765964     
  0.52887464121201011     
  0.86449519545586606     
   5.8904233002422063E-002
   4.6507783269168754E-002
  0.37547353768322000     
  0.87839384425763378     
  0.27620622816041901     
  0.33118565656944277     
  0.40728611429491729     
  0.68672402253772857     
  0.72212038888290120     
  0.11016045630409058     
  0.67929529394802657     
  0.43121520495390392     
  0.83651862587657044     
  0.39053788529837008     
   4.3616697222964872E-002
   7.7799878538319059E-002
  0.23634717540904707     
  0.34951118881629456     
  0.35067584761803888     
   3.9236533720974791E-002
  0.74290219190929641     
  0.97306089106519211     
  0.61270036740262046     
  0.44977557405847840     
  0.23682221276977519     
  0.87011999417122499     
  0.58245919384945033     
  0.91404278346111667     
  0.16616062765870529     
  0.71925545357142573     
  0.26804563793927094     
  0.51210272266254964     
   1.5619115212645503E-002
  0.16267911838838917     
  0.67017624493114414     
   5.6992870911168579E-002
  0.42324419039146227     
   3.2564106104608588E-002
  0.94814003277120373     
  0.71585430152971530     
  0.52060793475865730     
  0.53770985461690701     
  0.62894143331001373     
  0.55696217919572233     
  0.10645843704492346     
  0.31283321332748282     
  0.63091224701244153     
  0.47827026042684201     
   9.1451983270071563E-002
  0.83265627890180560     
   3.2482107905966666E-002
  0.31595077619396034     
  0.80701843214876323     
  0.78724577626751169     
  0.42389146387174059     
  0.39430379288503498     
  0.44208892420938090     
   4.3140007105626071E-002
  0.33476776141453474     
  0.96346130843694078     
  0.90962515715516779     
   2.8578333454245611E-002
   3.1688730215843182E-002
  0.17186586339706522     
   2.6199832447097667E-002
  0.40837492786416946     
  0.33153323564892723     
  0.69771981143790873     
  0.33686534866751078     
  0.87010518908144840     
  0.20323071870849851     
  0.22562640570121442     
  0.25119409482945010     
   3.3559284302416545E-002
  0.10535891978232259     
  0.73543241626245071     
  0.15890200318834388     
  0.78568040813243534     
  0.95340352769783110     
  0.59334922232614473     
   2.5309359331134061E-002
  0.64448936679517543     
  0.76602577528821236     
  0.51269759014275240     
  0.78350886459400404     
  0.50776393970931311     
  0.71385768221883317     
  0.61317816324768681     
  0.33548743426564015     
  0.66119464579808951     
   3.2453861579561080E-002
   5.3787316270961963E-002
  0.29689265053046637     
  0.98107848280270227     
  0.94430784434826065     
  0.35193629105065194     
  0.36103954311306313     
   3.8631781697390441E-002
  0.68076826356464559     
  0.95453541287091137     
   2.5940992580202299E-002
  0.48451535960286818     
  0.93946283671956543     
  0.24290378177964009     
  0.42944387151045138     
  0.27697434869333437     
  0.33288971091415104     
  0.98437448080235945     
  0.64204065052633463     
  0.12528880466185058     
  0.16771275641612499     
  0.53210886252330591     
  0.93034762992052444     
  0.37989783649769426     
  0.40284559174036899     
  0.73690918767450819     
   5.4031631287887100E-002
  0.83393932249015390     
  0.97706564526196549     
  0.97805761274315628     
  0.14837026387068494     
   3.7508467811589050E-002
  0.48252399547963837     
  0.80530129927236949     
  0.46896665943801630     
  0.14039520668038999     
   1.5623148310014705E-002
  0.31241708296361165     
  0.22908279163991749     
  0.88908970627825457     
  0.88307856328398660     
   6.7624222553883839E-002
  0.42463092821841003     
   4.6433652525318794E-002
  0.64650420493391902     
  0.15241967323172531     
   5.0309199159402948E-002
  0.73954880998068440     
  0.76820493209511398     
  0.24560974741187222     
  0.60316076963849330     
  0.47897627641011975     
  0.97265521732538551     
  0.74765308264435926     
  0.68197387751667060     
   3.8162144597574971E-002
  0.20719909255511482     
  0.95517422061087276     
  0.43433148834336982     
  0.43483075621396938     
  0.35925328785023974     
  0.76877669413165473     
  0.53999763986258043     
  0.27682694659832896     
  0.11305197605157712     
  0.52994187540033166     
  0.44459939085419670     
  0.41163783600732434     
  0.67272745918357513     
  0.87879317994745398     
  0.88625578828810225     
  0.34662539227449773     
  0.25522694692843712     
  0.60095852866934651     
  0.19909340364462366     
  0.19025774157971237     
  0.98437458240896725     
  0.55158320387436244     
  0.60455573071429813     
  0.69043164175468252     
  0.22099189636791455     
  0.89414842830923025     
  0.27559025598581016     
  0.74111234539720849     
  0.56418355784378516     
  0.40261093472627840     
  0.77468126832515716     
  0.96955879934097533     
  0.66433353776687221     
  0.96984102782220472     
  0.36585702803654241     
  0.73241454166930009     
  0.54050189155599415     
  0.20868522643400050     
  0.88429269122643650     
  0.81014904522209752     
  0.71882899269189360     
  0.18150797179332753     
  0.70511016052672904     
  0.36036049939683479     
  0.83243819431262278     
  0.74023385866509683     
  0.86587240954652911     
  0.53990555969176579     
  0.23792195440437924     
  0.76807486938808167     
  0.73492996185822479     
  0.97302795999048164     
  0.95600796082055928     
  0.95156166749642934     
  0.17994843758504878     
  0.82832501322604613     
   5.5360746082425014E-002
  0.80680088384927628     
   4.5679068315840371E-002
  0.44813233271147590     
  0.76764442360784269     
  0.95196070066946803     
  0.37917400306285631     
  0.77363476922580388     
  0.98438042187354124     
  0.96055788540694409     
  0.61445907803137756     
   3.9879623316603434E-002
  0.12253858300851872     
  0.60156095178400704     
  0.77995735801141231     
  0.88773452918069451     
  0.71594304092029726     
  0.11911895897886585     
  0.31203993031353428     
  0.72479696832984553     
  0.28374761797893761     
  0.89363415097810939     
  0.72971537856503310     
   9.5671222030341438E-002
  0.40138218377063051     
   4.2652077028851855E-002
  0.71209553027096051     
  0.34837604147977852     
  0.39061524827416494     
  0.50487839329898032     
  0.12755429085560860     
  0.28955954913333909     
  0.39092901655673779     
  0.86364091313948010     
  0.53275355163655735     
   4.4276671617216545E-002
  0.94108841151859679     
   4.2347903484237989E-002
  0.15986235811338442     
  0.68891306833354848     
  0.16643814989704878     
  0.19641274687374702     
  0.90066643368753363     
   9.0971711608923936E-002
  0.50665337355118378     
  0.78730699639606927     
  0.86288541422135279     
   4.4802914797065989E-002
  0.56175853787202912     
  0.22019529550327033     
  0.31162438289358746     
  0.80790366222727961     
  0.12514345953056180     
  0.64310685900166953     
   4.3252318856170063E-002
  0.68109391987858225     
  0.75113875576904898     
  0.37048141549022046     
  0.18867549299784722     
  0.95134898503156518     
  0.41983664289709183     
  0.35955119363191501     
  0.90322841296804890     
  0.66444792669871755     
  0.87726785300772459     
   2.3569892046725528E-002
  0.75463892597771343     
  0.97445573368650107     
  0.16906911965082816     
  0.15558859874232128     
  0.60003517677251239     
  0.73237541628312464     
  0.46061813280340536     
  0.97095325857677528     
  0.23436331524303256     
  0.94804293093737513     
  0.32306364862071224     
  0.51973021037744260     
  0.70353552637100203     
   1.5624106003454005E-002
   4.1918815637649480E-002
  0.58131917788204934     
  0.95495787492090500     
  0.38106478170798197     
  0.40194146702962497     
  0.27477508200845407     
  0.63748517423764439     
  0.90463230558292085     
  0.61028061050284288     
  0.82482963826464206     
  0.42358511755700123     
   3.5216959335129999E-002
  0.22536614474754627     
  0.33043471881409275     
  0.64979246681517089     
  0.81873961657881711     
  0.62326790637759677     
  0.88752327746974913     
  0.41358747628470083     
  0.15559303672904826     
  0.61750986116406903     
   3.9298189190517044E-002
  0.87747912334793776     
  0.81827152228343225     
  0.14277088027263302     
  0.12777490300734221     
  0.60677059763611441     
  0.72715812742322972     
  0.72819779019023945     
  0.23657384261356215     
  0.95663219402419153     
  0.67373309636833378     
  0.87490969822297904     
  0.21447772799090062     
  0.18083127655075473     
  0.66712522123500206     
  0.56035609598653313     
  0.63349954815434939     
  0.69040288230255631     
  0.48554315320543734     
   2.2391536309241695E-002
  0.18880835214440445     
  0.93873086260949379     
   3.2868251062525326E-002
  0.96179413036505779     
  0.55295663595443423     
  0.32082731959146410     
  0.73089079665919576     
  0.12857084397320759     
  0.11748522838604016     
  0.51462333473128530     
  0.89297312249354532     
  0.94165012904814616     
  0.92753614166209442     
  0.19909503127288053     
   3.2493255505956956E-002
  0.96380477866738679     
  0.97383550969887067     
  0.73597554897567696     
   3.9060290184282032E-002
  0.45385860145864126     
  0.40661864911015694     
  0.52928359646445688     
  0.38192107283214582     
  0.56328220352972280     
  0.20491736733087071     
  0.47272468144240676     
  0.31542468114544420     
  0.90901645040955004     
  0.14977363783057973     
  0.82004229998693767     
   3.5043170462643249E-002
  0.66079068200785240     
  0.25074639195324294     
  0.69172654805906475     
  0.85415253898669152     
  0.77974147629427504     
  0.35603379897406190     
  0.88391989209450994     
   9.8201745810494304E-002
  0.31845825189648341     
  0.57310180898901852     
   2.5480687258900285E-002
  0.71141367346857232     
  0.38079535857480751     
  0.72089665416789162     
  0.79251372452939883     
  0.42763413556410285     
  0.51790454077842174     
  0.20136206199155154     
  0.22030241808753487     
   4.3762473243852414E-002
  0.34558630701296489     
  0.47967467066731595     
  0.93484648268575488     
  0.19225401266373709     
   2.5821763264199733E-002
   7.6352486582778489E-002
  0.76711654830044429     
  0.32065264206710919     
  0.24282562452766204     
  0.34194133449143232     
   8.9470208452772607E-002
  0.60736404734377458     
   2.2340691031625778E-002
  0.53961768358966222     
  0.47589354593488820     
   5.0156680477831318E-002
   2.5149572304479097E-002
  0.22271827723757229     
  0.67186705115339929     
  0.45403343078317226     
   3.0725105622265415E-002
  0.70711758077824649     
  0.90524606736966573     
  0.56056738019921082     
   3.1409341025974917E-002
   8.5187517898105997E-002
  0.42385357196276724     
  0.80319790198739294     
  0.65059874599031264     
   5.1745971184872314E-002
  0.83051487573931637     
  0.81777558707522480     
   4.9061904493402711E-002
   5.0306175275247771E-002
  0.22147808305220495     
  0.17326807950673262     
  0.29131770233585919     
  0.60877400367669388     
  0.67738050999881816     
  0.98046994166542345     
  0.78619825133953891     
  0.12691147059855820     
  0.57778362169494790     
  0.51214288260270113     
  0.12905146505387186     
  0.76578851536947123     
  0.10550868392652368     
  0.76180309379628985     
  0.45850517925918977     
  0.43432833654533881     
  0.46144821735339220     
  0.90978269296202940     
  0.90597876978147662     
  0.97839494674654692     
  0.96915157495954984     
  0.31790625952021978     
  0.86927173518643519     
  0.95225029545923623     
   9.5729716671811613E-002
  0.97039378678258970     
  0.80018894533941742     
  0.70770471744655949     
  0.45143740613650873     
   3.2071458177506430E-002
  0.66131769102979898     
  0.87833463570815362     
   3.6733956178009196E-002
  0.65770135303082422     
   5.1059097287134800E-002
   3.1531591935592879E-002
  0.59976153139333521     
  0.21385549679961122     
  0.88396547040299611     
  0.72699260941556654     
  0.43221112743794599     
  0.95232025550762545     
  0.22742576819429625     
  0.21702604347498070     
  0.29968605584987640     
  0.13401596385616699     
   3.9782517948771259E-002
  0.77299461579469220     
  0.46337358757118730     
  0.66371308385227001     
  0.14145216361629520     
  0.56820320971695126     
  0.13550075969266290     
  0.98122346774767666     
  0.95905562572828396     
  0.41981711659092119     
  0.95756316230024741     
  0.21983294209664053     
   6.2282635493865077E-002
  0.64514909399830644     
  0.75281844858523650     
  0.95610624064395766     
  0.43904726004044781     
  0.89976978547702713     
  0.57180612041096268     
  0.87223325094486259     
  0.97197730870094368     
  0.93541902337419891     
  0.46676518855113941     
  0.33527685363266485     
  0.45174062447945890     
  0.41159467225783630     
  0.47327525845121038     
  0.54890762232350832     
  0.29686642044695533     
  0.62673689553560297     
  0.96456487631534416     
  0.23891885299868068     
  0.85268348909017588     
  0.56100745973512667     
  0.26734578901082429     
  0.60913832493383568     
  0.96735503037063286     
  0.49918800667794455     
  0.96044779595852237     
  0.29980848133090837     
  0.86675732050677246     
  0.35753191936160295     
  0.68170843316720764     
  0.41003633482099000     
  0.46938175199310650     
  0.28241512429756377     
   4.3469868834273478E-002
  0.53821102306623270     
  0.96641818685622927     
   3.5763944066044426E-002
  0.79534547847817927     
   3.5592335737323788E-002
   3.0136496446522037E-002
  0.20491202123541113     
  0.55526129992108653     
  0.54364635718645216     
   3.8397476103344187E-002
   9.3140126356135389E-002
  0.16729730507491863     
  0.75045493291031673     
  0.44845430626956850     
  0.21120309685196953     
  0.30586961100050436     
  0.11731684093474633     
  0.76041649195013150     
   5.4059742420414073E-002
  0.19114618840044503     
  0.67196871228237165     
  0.27135272700014207     
  0.40561279369008452     
  0.48509347750976173     
  0.68223381311464160     
  0.22808476098649308     
  0.33450342157736151     
  0.14792997538229807     
  0.83617842194246517     
  0.62145813024120355     
  0.58711388817123844     
   4.5111350427485326E-002
  0.96204662310744060     
  0.81438223493050077     
  0.74486042335123004     
  0.94986828304330639     
  0.23511616211773717     
  0.62142303879379546     
   2.7231699092008139E-002
  0.83582936301535493     
  0.39822379408011294     
  0.29411021980241425     
  0.62056133092415633     
  0.94721264822231044     
  0.93032624120051666     
  0.55761169644184139     