# vtk DataFile Version 3.0
Unstructured Grid
ASCII
DATASET UNSTRUCTURED_GRID
POINTS      4550 double
   0.0000000000000000        0.0000000000000000        0.0000000000000000     
   0.0000000000000000        0.0000000000000000        3.1250000000000000E-002
   0.0000000000000000        0.0000000000000000        6.2500000000000000E-002
   0.0000000000000000        0.0000000000000000        9.3750000000000000E-002
   0.0000000000000000        0.0000000000000000       0.12500000000000000     
   0.0000000000000000        0.0000000000000000       0.15625000000000000     
   0.0000000000000000        0.0000000000000000       0.18750000000000000     
   0.0000000000000000        0.0000000000000000       0.21875000000000000     
   0.0000000000000000        0.0000000000000000       0.25000000000000000     
   0.0000000000000000        0.0000000000000000       0.28125000000000000     
   0.0000000000000000        0.0000000000000000       0.31250000000000000     
   0.0000000000000000        0.0000000000000000       0.34375000000000000     
   0.0000000000000000        0.0000000000000000       0.37500000000000000     
   0.0000000000000000        0.0000000000000000       0.40625000000000000     
   0.0000000000000000        0.0000000000000000       0.43750000000000000     
   0.0000000000000000        0.0000000000000000       0.46875000000000000     
   0.0000000000000000        0.0000000000000000       0.50000000000000000     
   0.0000000000000000        0.0000000000000000       0.53125000000000000     
   0.0000000000000000        0.0000000000000000       0.56250000000000000     
   0.0000000000000000        0.0000000000000000       0.59375000000000000     
   0.0000000000000000        0.0000000000000000       0.62500000000000000     
   0.0000000000000000        0.0000000000000000       0.65625000000000000     
   0.0000000000000000        0.0000000000000000       0.68750000000000000     
   0.0000000000000000        0.0000000000000000       0.71875000000000000     
   0.0000000000000000        0.0000000000000000       0.75000000000000000     
   0.0000000000000000        0.0000000000000000       0.78125000000000000     
   0.0000000000000000        0.0000000000000000       0.81250000000000000     
   0.0000000000000000        0.0000000000000000       0.84375000000000000     
   0.0000000000000000        0.0000000000000000       0.87500000000000000     
   0.0000000000000000        0.0000000000000000       0.90625000000000000     
   0.0000000000000000        0.0000000000000000       0.93750000000000000     
   0.0000000000000000        0.0000000000000000       0.96875000000000000     
   0.0000000000000000        0.0000000000000000        1.0000000000000000     
   0.0000000000000000        3.1250000000000000E-002   0.0000000000000000     
   0.0000000000000000        3.1250000000000000E-002   1.0000000000000000     
   0.0000000000000000        4.2405763908650258E-002  0.66130451259029932     
   0.0000000000000000        4.3217879046206449E-002  0.14760011926069846     
   0.0000000000000000        4.6024266659168159E-002  0.44206785664549769     
   0.0000000000000000        4.6024266659168159E-002  0.52668214335450225     
   0.0000000000000000        5.0942866059175335E-002  0.10420737699075047     
   0.0000000000000000        5.2217891062431979E-002   5.2217891062431979E-002
   0.0000000000000000        5.2761163692563604E-002  0.38171595438393841     
   0.0000000000000000        5.5068963296708517E-002  0.59134852187332609     
   0.0000000000000000        5.6120114733671470E-002  0.75604724093930309     
   0.0000000000000000        5.6324478455296215E-002  0.24577786591727294     
   0.0000000000000000        5.7363532779538949E-002  0.87371196899699510     
   0.0000000000000000        5.7470675736370332E-002  0.18930699270579771     
   0.0000000000000000        5.8263363642804059E-002  0.81429895566577748     
   0.0000000000000000        6.0887870516095753E-002  0.69980397551580908     
   0.0000000000000000        6.2500000000000000E-002   0.0000000000000000     
   0.0000000000000000        6.2500000000000000E-002   1.0000000000000000     
   0.0000000000000000        6.4711269014538775E-002  0.48437500000000000     
   0.0000000000000000        6.9225209415320288E-002  0.33114145848017668     
   0.0000000000000000        7.0413861272891454E-002  0.92958613872710860     
   0.0000000000000000        7.9770917049368548E-002  0.64062500000000000     
   0.0000000000000000        8.3926071099233085E-002  0.28526314383622647     
   0.0000000000000000        8.7633724434323254E-002  0.42187500000000000     
   0.0000000000000000        8.7633724434323254E-002  0.54687500000000000     
   0.0000000000000000        8.8068181818181823E-002  0.14062500000000000     
   0.0000000000000000        9.3750000000000000E-002   0.0000000000000000     
   0.0000000000000000        9.3750000000000000E-002   1.0000000000000000     
   0.0000000000000000       0.10119805731737391       0.89303091974927329     
   0.0000000000000000       0.10210219776924923        7.0764746741824577E-002
   0.0000000000000000       0.10635988421955403       0.21957230430375799     
   0.0000000000000000       0.10740857139383649       0.84564547603995810     
   0.0000000000000000       0.10786461042496739       0.46474837701534855     
   0.0000000000000000       0.10968401176898811       0.73824428233438488     
   0.0000000000000000       0.10969220020645358       0.95550186482507926     
   0.0000000000000000       0.11544264275928678       0.79209098776725284     
   0.0000000000000000       0.11808901360852578       0.59663401005457384     
   0.0000000000000000       0.12041430467853043       0.67800854775312602     
   0.0000000000000000       0.12335307882294175       0.17407035117359601     
   0.0000000000000000       0.12500000000000000        0.0000000000000000     
   0.0000000000000000       0.12500000000000000        1.0000000000000000     
   0.0000000000000000       0.13002446100559079       0.36656116971438985     
   0.0000000000000000       0.13068181818181818       0.29687500000000000     
   0.0000000000000000       0.13145794935938171       0.52792875194736344     
   0.0000000000000000       0.13152145848091723       0.25413323966508028     
   0.0000000000000000       0.14029998073959937       0.12855113636363635     
   0.0000000000000000       0.14062500000000000       0.92003956561172884     
   0.0000000000000000       0.14354289369273243        4.6375564186635417E-002
   0.0000000000000000       0.14789203175728108       0.42415466219925380     
   0.0000000000000000       0.15101795183539601       0.48437500000000000     
   0.0000000000000000       0.15625000000000000        0.0000000000000000     
   0.0000000000000000       0.15625000000000000        1.0000000000000000     
   0.0000000000000000       0.15812483216952217       0.81572518579617204     
   0.0000000000000000       0.16016925006360749       0.76155969044955663     
   0.0000000000000000       0.16105769230769232       0.64062500000000000     
   0.0000000000000000       0.16498033923188599       0.56192540447066308     
   0.0000000000000000       0.16681364204580570       0.86373403073390376     
   0.0000000000000000       0.16773736985982415       0.70646802951986931     
   0.0000000000000000       0.17187500000000000        8.5227272727272721E-002
   0.0000000000000000       0.17187500000000000       0.17187500000000000     
   0.0000000000000000       0.17230065023518384       0.24130278401345417     
   0.0000000000000000       0.17524993035964637       0.33214160114056268     
   0.0000000000000000       0.17536724190152050       0.95339263300749488     
   0.0000000000000000       0.18456495164560949       0.51836722168265548     
   0.0000000000000000       0.18672094257804892       0.28630188376875909     
   0.0000000000000000       0.18750000000000000        0.0000000000000000     
   0.0000000000000000       0.18750000000000000        1.0000000000000000     
   0.0000000000000000       0.19182611979586967        4.4839049992879139E-002
   0.0000000000000000       0.19736660067068895       0.38449523208871811     
   0.0000000000000000       0.19991704497100604       0.20641827567287876     
   0.0000000000000000       0.20249993440656938       0.12855113636363635     
   0.0000000000000000       0.20312500000000000       0.79687500000000000     
   0.0000000000000000       0.20592650903014437       0.91616923083075008     
   0.0000000000000000       0.20708080019865122       0.60347138662486799     
   0.0000000000000000       0.20881174380662740       0.45118373807264039     
   0.0000000000000000       0.21148737705495707       0.74054376865132920     
   0.0000000000000000       0.21407117136637366       0.65921232651476624     
   0.0000000000000000       0.21875000000000000        0.0000000000000000     
   0.0000000000000000       0.21875000000000000        1.0000000000000000     
   0.0000000000000000       0.22621916310275669       0.26036437453168837     
   0.0000000000000000       0.22693109923009044       0.84817608833212677     
   0.0000000000000000       0.22934361368355521       0.53497275561808477     
   0.0000000000000000       0.23291828960141181        6.3296820644412860E-002
   0.0000000000000000       0.23549788065273725       0.32831789642150322     
   0.0000000000000000       0.24440883944936315       0.20614550385605404     
   0.0000000000000000       0.25000000000000000        0.0000000000000000     
   0.0000000000000000       0.25000000000000000        1.0000000000000000     
   0.0000000000000000       0.25308036536593070       0.69963757175059260     
   0.0000000000000000       0.25433452960858166       0.94422008612362063     
   0.0000000000000000       0.25438783372307811       0.39434016470855998     
   0.0000000000000000       0.25455601108832415       0.63866292690521120     
   0.0000000000000000       0.25542104790070941       0.12478291206971995     
[...]
CELL_DATA     20981
SCALARS pressure double 1
LOOKUP_TABLE default
  0.77318582042817430     
  0.69948843124780591     
  0.16110556646459767     
  0.53920615661774451     
  0.25121908305599883     
   3.9106334759046645E-002
   3.7929600512838051E-002
  0.65422855144311731     
  0.67562955169355632     
   7.4399878814045459E-002
  0.34640962845415829     
  0.90111399271904247     
  0.15839262441059213     
  0.96922416490749219     
  0.13396507599229696     
  0.32367500926114906     
  0.84288282578734897     
  0.95702791726516068     
  0.96916063334322955     
  0.79984699051248076     
  0.94330293262855924     
  0.33465783550396971     
  0.35100464268031861     
   4.9291657358112945E-002
   2.9695895637152081E-002
  0.32059550920589597     
  0.30017460403710006     
  0.37191580413967401     
  0.41038593663780581     
  0.10818174053818409     
   3.9959364351327964E-002
  0.95095762531278416     
  0.33977651202915454     
  0.81171213474723614     
  0.69117319753316631     
  0.86814841693606404     
  0.36502112679650606     
  0.91774508062149462     
  0.95152197125685312     
  0.97449046803065764     
  0.43172677896280826     
  0.60633505788817432     
  0.85922928859918524     
  0.87712996360295237     
  0.24055760081256850     
  0.88367233813245705     
  0.94424818581691827     
  0.41915499898592895     
  0.96214479487735338     
  0.22301328535018666     
  0.68214356463831383     
  0.34107043796441727     
  0.21590024182956277     
  0.32334256599855532     
  0.87473753556021172     
  0.85365043494804282     
  0.70037530518715696     
  0.21463489927908130     
  0.75095678125026044     
  0.54903436675696726     
  0.26261384858300085     
  0.66583233100560946     
  0.23682464844755735     
  0.95127978551111414     
  0.41940589774563952     
  0.93085995924166720     
  0.19339572552727960     
  0.12913385835972005     
  0.80742970497315159     
   8.0598554064788622E-002
   4.9414223851553765E-002
   4.5247869465911063E-002
  0.15009137600113351     
  0.44799076796444326     
  0.95729842431118872     
  0.56817085478313034     
  0.39613819578636039     
  0.76472324030779171     
  0.48272493504967717     
  0.41602947031066229     
  0.65841643306344455     
  0.81156942841889312     
   5.0442104033717586E-002
  0.26739081862863445     
  0.17203142470188951     
  0.49640523325533664     
  0.52077113867448954     
  0.17900458792628693     
  0.48594173048792461     
  0.40588845125622908     
  0.42668449245915463     
  0.95296248533902894     
  0.44284714732911684     
  0.82569685832715412     
   3.8413567236417472E-002
  0.10343015281485858     
  0.85654529681393843     
  0.62057213475848483     
  0.33166003584411885     
  0.80618274548995650     
  0.52448492997861840     
  0.96777249532345311     
  0.54739947121877341     
  0.40506693694693252     
   9.0554223965358352E-002
  0.89135646312135142     
  0.97018379655031006     
  0.41715620305195383     
  0.97010899628719482     
  0.19033474329647057     
  0.37964420668340976     
  0.71544046049713528     
   1.5609900034894030E-002
  0.51515533596036933     
  0.29636815151673424     
  0.90644499477596796     
  0.15149993546208282     
  0.74703728946929238     
  0.96378086681124431     
  0.27746339191110175     
  0.64740843643318891     
  0.76770845376352259     
  0.26120114930018373     
  0.74853559702887085     
  0.20261018124138849     
  0.68152597206336774     
  0.70328600792910367     
  0.65170794660074727     
  0.28122845964733806     
  0.41070132997732861     
  0.31720783548366915     
  0.24182606667431736     
  0.41626099260326760     
  0.80177754821685554     
  0.96521073297844595     
  0.71329690258264111     
  0.23206767876590528     
   4.6698750666745989E-002
  0.31792414585502604     
  0.73517231771305980     
  0.57444393013289352     
  0.18899356761860775     
  0.96711508610393193     
  0.20165030344927623     
  0.14476996733601197     
  0.12960518038678798     
  0.33891556706835263     
  0.90273275596076707     
  0.52185290799392325     
  0.45302572394592877     
  0.15418545986269822     
  0.97100997180204562     
  0.96552160181916791     
  0.26912821365611073     
  0.95191463155613021     
  0.76736032214786898     
  0.90815326766096727     
  0.25213146278670584     
  0.29621418498302238     
  0.88906025446991976     
  0.95149975516769414     
  0.12132667683727688     
  0.30541611848249628     
  0.53551315165362467     
  0.24727761220591457     
  0.98437217747440020     
  0.49003832764873106     
   4.8039525223638149E-002
  0.19923964465231450     
  0.96287031066071016     
  0.55938977063887152     
  0.41976188594104685     
  0.51890156286425571     
   3.5550238774345766E-002
  0.46186598381446331     
  0.46123459844709452     
  0.51167997162163659     
  0.93204043329874464     
   2.7897755540266307E-002
  0.35545383925747148     
  0.90620103290660514     
  0.87485532682939415     
  0.55322611384086040     
  0.77228498420822378     
  0.33562672322545473     
  0.85856598356630709     
  0.29499583449485561     
  0.57252196808046352     
  0.90186835571178048     
  0.52750553004827427     
  0.86445556725782779     
   5.8790960011586534E-002
   4.6361214862204528E-002
  0.37228427720479029     
  0.87880164799484661     
  0.27570342516383578     
  0.32927440939276414     
  0.40689794678650049     
  0.68833613002791294     
  0.72182008283662824     
  0.10999811787686092     
  0.67900935280252761     
  0.42963321083465733     
  0.83767773078641672     
  0.39014099768682736     
   4.3543441057447382E-002
   7.7720199676705473E-002
  0.23595715051580687     
  0.34774342395822033     
  0.34999861586149605     
   3.9021827742864695E-002
  0.74276092634165614     
  0.97303559125080841     
  0.61124293490686399     
  0.44925857209042691     
  0.23527335357436571     
  0.87000994670196941     
  0.58199673021258702     
  0.91396698126377141     
  0.16506438090165076     
  0.71910184168639857     
  0.26625067671948988     
  0.51164616583670630     
   1.5515217864515719E-002
  0.16240170144656099     
  0.66973851210054824     
   5.6632064879056018E-002
  0.42268846406535115     
   3.2344953828870322E-002
  0.94812145970058070     
  0.71558733747442405     
  0.51914659866217372     
  0.53703471755784826     
  0.62863987011701983     
  0.55670125856899910     
  0.10628411420093845     
  0.31239354465928820     
  0.63057086843865096     
  0.47568098348608995     
   9.0795492778601078E-002
  0.83492879349760107     
   3.2422417478554871E-002
  0.31408074869634256     
  0.80688141081727549     
  0.78705235283465602     
  0.42341668218299716     
  0.39156289684222340     
  0.44141694370004542     
   4.3000805897588000E-002
  0.33452257303967226     
  0.96379565296979275     
  0.91003956030521282     
   2.8530143340091959E-002
   3.1634584011607049E-002
  0.17159132081859257     
   2.6046953700052427E-002
  0.40793504451634699     
  0.32960113151371151     
  0.69747057994194983     
  0.33634138238160288     
  0.87090816140896021     
  0.20279514990347286     
  0.22402742509494508     
  0.25092116411334819     
   3.3395216827044237E-002
  0.10479200609414510     
  0.73515639446956560     
  0.15863967308583998     
  0.78607964080583537     
  0.95340823008693276     
  0.59234568890244910     
   2.5283752558079731E-002
  0.64420320381406304     
  0.76935511449033678     
  0.51193357248353966     
  0.78500859424315883     
  0.50374536259132485     
  0.71452821005577138     
  0.61283366497709979     
  0.33500343838528768     
  0.66084880914877142     
   3.2419025433759435E-002
   5.3704918738588438E-002
  0.29466554435313508     
  0.98106155968022923     
  0.94428578739269153     
  0.35008502499247707     
  0.36058446878824146     
   3.8401087569503049E-002
  0.69182688887354837     
  0.95449153477711601     
   2.5796311177112129E-002
  0.48388672322727755     
  0.93946162204918338     
  0.24251936335174720     
  0.42888728358493855     
  0.27671579993612255     
  0.33122147618772901     
  0.98435919044755338     
  0.64039358980303851     
  0.12474193204684433     
  0.16662178951308451     
  0.52909118720268267     
  0.93029496693761482     
  0.37931762546765802     
  0.40227768616589143     
  0.73742608407152110     
   5.3965807786531546E-002
  0.83435755504519193     
  0.97704446474686946     
  0.97805355930418125     
  0.14809360878411088     
   3.7431538189634801E-002
  0.48201708209622918     
  0.80516918692011719     
  0.46598573192690901     
  0.13994071632397875     
   1.5590776745807363E-002
  0.31207756108557949     
  0.22874582131422305     
  0.89016618881500387     
  0.88432564313226147     
   6.7523714164288720E-002
  0.42228994383697388     
   4.6343994070148969E-002
  0.64630173751466113     
  0.15186849547868542     
   5.0176484170209583E-002
  0.73988425461646345     
  0.77442859145099363     
  0.24489503320934150     
  0.59468927175356834     
  0.47753962089066143     
  0.97286651371527078     
  0.74746698334533324     
  0.68168261536690977     
   3.8126053342894456E-002
  0.20566576191857178     
  0.95589673714743717     
  0.43404498602713781     
  0.43372525883196250     
  0.35726929181265721     
  0.76861102939497516     
  0.53968630431084785     
  0.27604739363262248     
  0.11243944103173370     
  0.52854880548812400     
  0.44412292014997984     
  0.40954920666926153     
  0.67250401122718950     
  0.87949720759150685     
  0.88648473509576187     
  0.34614832293358205     
  0.25464592318912121     
  0.60045106766162493     
  0.19874023540735528     
  0.18893273582862236     
  0.98436372264536576     
  0.55110971692910526     
  0.60412346213150825     
  0.69018706022344922     
  0.22064217530265071     
  0.89405761423066643     
  0.27333583196477979     
  0.74092418726934195     
  0.56350255998594778     
  0.40196067707869670     
  0.77452076915922896     
  0.96984485484691652     
  0.66406730226163346     
  0.96983635769124876     
  0.36540774063985049     
  0.73213426459016029     
  0.53989084119545938     
  0.20846571266505831     
  0.88427814223356715     
  0.81000534567961247     
  0.71861285967472066     
  0.18103660795845231     
  0.70480560168913775     
  0.35954839027337276     
  0.83272881217332217     
  0.74002242817468733     
  0.86582765588956190     
  0.53503911681819083     
  0.23766023563962294     
  0.76790919984317751     
  0.73502191683248941     
  0.97301444688389482     
  0.95596671390899557     
  0.95151750670315727     
  0.17861173044435788     
  0.83129076633418642     
   5.4995473559859218E-002
  0.80666350669970499     
   4.5606283129177347E-002
  0.44766871200541486     
  0.76832879559505451     
  0.95194664634180937     
  0.37776276088100147     
  0.77342509079418220     
  0.98447681288754463     
  0.96052331399619739     
  0.61383666876989695     
   3.9803212995094192E-002
  0.12165086855253078     
  0.60095137931651466     
  0.78011962825947667     
  0.88829582602118484     
  0.71574394999296698     
  0.11832133591674780     
  0.31141335265736386     
  0.72759813676591434     
  0.28330077790115554     
  0.89534476172546507     
  0.72955746623490403     
   9.5479238363174179E-002
  0.40060185020400774     
   4.2470128169552972E-002
  0.71499554877075944     
  0.34641026637908640     
  0.39035681675792383     
  0.50452655776262822     
  0.12727752279942192     
  0.28908938000140094     
  0.38859787122518313     
  0.86353799315030955     
  0.53248481198961140     
   4.4096709674141470E-002
  0.94136146424665978     
   4.2273864270313453E-002
  0.15866702504043928     
  0.68909741265702029     
  0.16521316642865669     
  0.19490785270979014     
  0.90060590636654170     
   9.0374076135884981E-002
  0.50606723847788815     
  0.78929573401987052     
  0.86310409362434493     
   4.4742976137294575E-002
  0.56104094648874603     
  0.21984658387092867     
  0.30919829576174601     
  0.80771823336686888     
  0.12445890224925024     
  0.64289956112938018     
   4.3058435053940504E-002
  0.68073230277075858     
  0.75098267600469448     
  0.37001954899140199     
  0.18840668262996033     
  0.95194630012771897     
  0.41905500062087159     
  0.35915217063859867     
  0.90316110942465855     
  0.66410546330378151     
  0.87728777429938398     
   2.3532414546058842E-002
  0.75508367381352182     
  0.97443637997802524     
  0.16883792314610643     
  0.15541712456737347     
  0.59968543182873646     
  0.73209563897651997     
  0.45724223944880532     
  0.97092697180384657     
  0.23401059753037087     
  0.94807814912192956     
  0.32182214288442834     
  0.51932550650604303     
  0.70536267352293003     
   1.5597409255780377E-002
   4.1814838859535963E-002
  0.54408383361218571     
  0.95493542267688125     
  0.38060347200367939     
  0.39828623051950934     
  0.27344165626282135     
  0.63718986710346548     
  0.90455788750865163     
  0.60988845299460315     
  0.82470717672877070     
  0.42310949446899632     
   3.5159167552376983E-002
  0.22444559950353929     
  0.32999908051561799     
  0.64941702572384274     
  0.81861144926603202     
  0.62272196825342407     
  0.88747320602220314     
  0.41293824146266400     
  0.15503879574022228     
  0.61749400272988120     
   3.9112228586319686E-002
  0.87749787489347497     
  0.81809513203628215     
  0.14263323977567505     
  0.12762053408576632     
  0.60642648716879322     
  0.72691880002394893     
  0.72832693545965588     
  0.23636052614087988     
  0.95685292867450678     
  0.67347165070613668     
  0.87661774387996083     
  0.21303547522398186     
  0.18051990651543129     
  0.66686212485424678     
  0.55979379835752596     
  0.63323267852828824     
  0.69042275250553176     
  0.48525852648218165     
   2.2362878556924544E-002
  0.18853941802939153     
  0.93879561881834339     
   3.2825153592339611E-002
  0.96176778118047934     
  0.55259419322087699     
  0.32019611469995113     
  0.73060877431934101     
  0.12836466177822298     
  0.11727196894312852     
  0.50906490833025098     
  0.89309910922332414     
  0.94169514951866928     
  0.92750424530904985     
  0.19801945876742197     
   3.2449532176206941E-002
  0.96394956827978717     
  0.97388399699259587     
  0.74778396012909976     
   3.8940045512823332E-002
  0.44963763671410550     
  0.40480406200420987     
  0.52794674526384322     
  0.37987830183702692     
  0.56151333796730252     
  0.20458889714190578     
  0.46786451319471895     
  0.31501251125832469     
  0.90905525959875044     
  0.14908390039116670     
  0.81992455897257266     
   3.4808191219593179E-002
  0.66175571627924812     
  0.24977309120555446     
  0.69151131757921835     
  0.85410024089421011     
  0.77951890018824777     
  0.35543330369254206     
  0.88627476333781641     
   9.8068992775538016E-002
  0.31593173967904775     
  0.57285159074029601     
   2.5429517981549885E-002
  0.71973465050275909     
  0.37944457480102428     
  0.72069748272732748     
  0.79513178231998871     
  0.42699110909501509     
  0.51721381154329704     
  0.20089314417110574     
  0.22002878555427521     
   4.3449306099376910E-002
  0.34529636134118663     
  0.47904849295966695     
  0.93490377915590339     
  0.19122846402648616     
   2.5796209003087940E-002
   7.6243005960910298E-002
  0.76689661302362133     
  0.31960076345509031     
  0.24244415533600333     
  0.34104406222634220     
   8.9378864064431657E-002
  0.60698716077300530     
   2.2294992752884261E-002
  0.53896747026507552     
  0.47550200187779301     
   4.9873073583760211E-002
   2.5098019598948119E-002
  0.22125129204482330     
  0.67165801988409890     
  0.45313261715547715     
   3.0673271006336766E-002
  0.70718643242329171     
  0.90580760299854890     
  0.55935746363280425     
   3.1298063566118937E-002
   8.5086039938586350E-002
  0.42343098253856137     
  0.80312840715932110     
  0.65033592540714757     
   5.1661649950696976E-002
  0.83040553251943705     
  0.81975538045977303     
   4.8840554712753163E-002
   4.9979959691854613E-002
  0.22039887374747313     
  0.17198416328905120     
  0.29075680811220306     
  0.60850765249361927     
  0.67698125382772212     
  0.98051551868595810     
  0.78768581822205797     
  0.12608006987567491     
  0.57735182657007023     
  0.51179127340851704     
  0.12892023721585394     
  0.76562446491410152     
  0.10497886134979252     
  0.76489864214668302     
  0.45755652629734256     
  0.43406291060425434     
  0.46010203413416756     
  0.90977068392321980     
  0.90649941121000799     
  0.97837504713646939     
  0.96912358249432040     
  0.31626422987382552     
  0.87120468676269880     
  0.95220547725902638     
   9.5503569575952157E-002
  0.97041702659691520     
  0.80047429904906242     
  0.70874360836898909     
  0.45081415799810648     
   3.1989890904667313E-002
  0.66093976825899148     
  0.87821560568269319     
   3.6490624523412708E-002
  0.65725020110761867     
   5.0996184574209402E-002
   3.1357737472714378E-002
  0.56856932986946440     
  0.21355548028182372     
  0.88395744752314320     
  0.72745674576164987     
  0.43143710916650080     
  0.95241204787746025     
  0.22577790532740052     
  0.21564108020478559     
  0.29945479868930042     
  0.13302997334133290     
   3.9717746171724626E-002
  0.77325166809180312     
  0.46150650314790970     
  0.66336913181154400     
  0.14111405487022455     
  0.54865117266331886     
  0.13467666840838655     
  0.98120624877567308     
  0.95914073847374648     
  0.41930401897041897     
  0.95752899744090425     
  0.21947935594421109     
   6.1871914697898364E-002
  0.64489242086749810     
  0.75257545344207810     
  0.95606869270141648     
  0.43840209633124394     
  0.90033643349795123     
  0.57141339719283590     
  0.87412760819939939     
  0.97195782638958628     
  0.93535869268218041     
  0.46539572415784403     
  0.33501665231189209     
  0.45067782774814114     
  0.41015555842551271     
  0.47285226418484511     
  0.54859621944417014     
  0.29663920270741856     
  0.62635051735380565     
  0.96459300487894528     
  0.23736311680733890     
  0.85445755583813787     
  0.55502662526557545     
  0.26651291981289310     
  0.60782730579229149     
  0.96734282071330346     
  0.49779435271428379     
  0.96042396747747871     
  0.29802291163795613     
  0.86671274207656424     
  0.35412836844234719     
  0.69547646067530811     
  0.40802058671545094     
  0.46886993822717088     
  0.28158500098101974     
   4.3392304586204779E-002
  0.53761923042823745     
  0.96641279251928791     
   3.5604054048914376E-002
  0.79560862418519585     
   3.5533246893983073E-002
   3.0077132912748501E-002
  0.20423433637448229     
  0.55430292560360539     
  0.54220297187995226     
   3.8319836957127547E-002
   9.2476047435265926E-002
  0.16605275991552845     
  0.75036631577962509     
  0.44158094862379232     
  0.21076862588649259     
  0.30512190132239453     
  0.11679847720428449     
  0.76024872915757857     
   5.3713871270529581E-002
  0.19056516880731150     
  0.67207993812049349     
  0.27054327038113662     
  0.40413751452436852     
  0.48453597837292584     
  0.68197140198270467     
  0.22773941515960591     
  0.33294030858640133     
  0.14737545553904274     
  0.83618645455274832     
  0.61633511075939162     
  0.58568753752981939     
   4.5047565001718567E-002
  0.96201629041678738     
  0.81425324939692634     
  0.74468257937196092     
  0.94982260272645314     
  0.23349376392238588     
  0.62149112157456143     
   2.7094452586998028E-002
  0.83600975024907809     
  0.39547452178137416     
  0.29359540438266968     
  0.62010844645769259     
  0.94824255872071450     
  0.93050938552258633     
  0.55730363169770514     