# vtk DataFile Version 3.0
Unstructured Grid
ASCII
DATASET UNSTRUCTURED_GRID
POINTS      4550 double
   0.0000000000000000        0.0000000000000000        0.0000000000000000     
   0.0000000000000000        0.0000000000000000        3.1250000000000000E-002
   0.0000000000000000        0.0000000000000000        6.2500000000000000E-002
   0.0000000000000000        0.0000000000000000        9.3750000000000000E-002
   0.0000000000000000        0.0000000000000000       0.12500000000000000     
   0.0000000000000000        0.0000000000000000       0.15625000000000000     
   0.0000000000000000        0.0000000000000000       0.18750000000000000     
   0.0000000000000000        0.0000000000000000       0.21875000000000000     
   0.0000000000000000        0.0000000000000000       0.25000000000000000     
   0.0000000000000000        0.0000000000000000       0.28125000000000000     
   0.0000000000000000        0.0000000000000000       0.31250000000000000     
   0.0000000000000000        0.0000000000000000       0.34375000000000000     
   0.0000000000000000        0.0000000000000000       0.37500000000000000     
   0.0000000000000000        0.0000000000000000       0.40625000000000000     
   0.0000000000000000        0.0000000000000000       0.43750000000000000     
   0.0000000000000000        0.0000000000000000       0.46875000000000000     
   0.0000000000000000        0.0000000000000000       0.50000000000000000     
   0.0000000000000000        0.0000000000000000       0.53125000000000000     
   0.0000000000000000        0.0000000000000000       0.56250000000000000     
   0.0000000000000000        0.0000000000000000       0.59375000000000000     
   0.0000000000000000        0.0000000000000000       0.62500000000000000     
   0.0000000000000000        0.0000000000000000       0.65625000000000000     
   0.0000000000000000        0.0000000000000000       0.68750000000000000     
   0.0000000000000000        0.0000000000000000       0.71875000000000000     
   0.0000000000000000        0.0000000000000000       0.75000000000000000     
   0.0000000000000000        0.0000000000000000       0.78125000000000000     
   0.0000000000000000        0.0000000000000000       0.81250000000000000     
   0.0000000000000000        0.0000000000000000       0.84375000000000000     
   0.0000000000000000        0.0000000000000000       0.87500000000000000     
   0.0000000000000000        0.0000000000000000       0.90625000000000000     
   0.0000000000000000        0.0000000000000000       0.93750000000000000     
   0.0000000000000000        0.0000000000000000       0.96875000000000000     
   0.0000000000000000        0.0000000000000000        1.0000000000000000     
   0.0000000000000000        3.1250000000000000E-002   0.0000000000000000     
   0.0000000000000000        3.1250000000000000E-002   1.0000000000000000     
   0.0000000000000000        4.2405763908650258E-002  0.66130451259029932     
   0.0000000000000000        4.3217879046206449E-002  0.14760011926069846     
   0.0000000000000000        4.6024266659168159E-002  0.44206785664549769     
   0.0000000000000000        4.6024266659168159E-002  0.52668214335450225     
   0.0000000000000000        5.0942866059175335E-002  0.10420737699075047     
   0.0000000000000000        5.2217891062431979E-002   5.2217891062431979E-002
   0.0000000000000000        5.2761163692563604E-002  0.38171595438393841     
   0.0000000000000000        5.5068963296708517E-002  0.59134852187332609     
   0.0000000000000000        5.6120114733671470E-002  0.75604724093930309     
   0.0000000000000000        5.6324478455296215E-002  0.24577786591727294     
   0.0000000000000000        5.7363532779538949E-002  0.87371196899699510     
   0.0000000000000000        5.7470675736370332E-002  0.18930699270579771     
   0.0000000000000000        5.8263363642804059E-002  0.81429895566577748     
   0.0000000000000000        6.0887870516095753E-002  0.69980397551580908     
   0.0000000000000000        6.2500000000000000E-002   0.0000000000000000     
   0.0000000000000000        6.2500000000000000E-002   1.0000000000000000     
   0.0000000000000000        6.4711269014538775E-002  0.48437500000000000     
   0.0000000000000000        6.9225209415320288E-002  0.33114145848017668     
   0.0000000000000000        7.0413861272891454E-002  0.92958613872710860     
   0.0000000000000000        7.9770917049368548E-002  0.64062500000000000     
   0.0000000000000000        8.3926071099233085E-002  0.28526314383622647     
   0.0000000000000000        8.7633724434323254E-002  0.42187500000000000     
   0.0000000000000000        8.7633724434323254E-002  0.54687500000000000     
   0.0000000000000000        8.8068181818181823E-002  0.14062500000000000     
   0.0000000000000000        9.3750000000000000E-002   0.0000000000000000     
   0.0000000000000000        9.3750000000000000E-002   1.0000000000000000     
   0.0000000000000000       0.10119805731737391       0.89303091974927329     
   0.0000000000000000       0.10210219776924923        7.0764746741824577E-002
   0.0000000000000000       0.10635988421955403       0.21957230430375799     
   0.0000000000000000       0.10740857139383649       0.84564547603995810     
   0.0000000000000000       0.10786461042496739       0.46474837701534855     
   0.0000000000000000       0.10968401176898811       0.73824428233438488     
   0.0000000000000000       0.10969220020645358       0.95550186482507926     
   0.0000000000000000       0.11544264275928678       0.79209098776725284     
   0.0000000000000000       0.11808901360852578       0.59663401005457384     
   0.0000000000000000       0.12041430467853043       0.67800854775312602     
   0.0000000000000000       0.12335307882294175       0.17407035117359601     
   0.0000000000000000       0.12500000000000000        0.0000000000000000     
   0.0000000000000000       0.12500000000000000        1.0000000000000000     
   0.0000000000000000       0.13002446100559079       0.36656116971438985     
   0.0000000000000000       0.13068181818181818       0.29687500000000000     
   0.0000000000000000       0.13145794935938171       0.52792875194736344     
   0.0000000000000000       0.13152145848091723       0.25413323966508028     
   0.0000000000000000       0.14029998073959937       0.12855113636363635     
   0.0000000000000000       0.14062500000000000       0.92003956561172884     
   0.0000000000000000       0.14354289369273243        4.6375564186635417E-002
   0.0000000000000000       0.14789203175728108       0.42415466219925380     
   0.0000000000000000       0.15101795183539601       0.48437500000000000     
   0.0000000000000000       0.15625000000000000        0.0000000000000000     
   0.0000000000000000       0.15625000000000000        1.0000000000000000     
   0.0000000000000000       0.15812483216952217       0.81572518579617204     
   0.0000000000000000       0.16016925006360749       0.76155969044955663     
   0.0000000000000000       0.16105769230769232       0.64062500000000000     
   0.0000000000000000       0.16498033923188599       0.56192540447066308     
   0.0000000000000000       0.16681364204580570       0.86373403073390376     
   0.0000000000000000       0.16773736985982415       0.70646802951986931     
   0.0000000000000000       0.17187500000000000        8.5227272727272721E-002
   0.0000000000000000       0.17187500000000000       0.17187500000000000     
   0.0000000000000000       0.17230065023518384       0.24130278401345417     
   0.0000000000000000       0.17524993035964637       0.33214160114056268     
   0.0000000000000000       0.17536724190152050       0.95339263300749488     
   0.0000000000000000       0.18456495164560949       0.51836722168265548     
   0.0000000000000000       0.18672094257804892       0.28630188376875909     
   0.0000000000000000       0.18750000000000000        0.0000000000000000     
   0.0000000000000000       0.18750000000000000        1.0000000000000000     
   0.0000000000000000       0.19182611979586967        4.4839049992879139E-002
   0.0000000000000000       0.19736660067068895       0.38449523208871811     
   0.0000000000000000       0.19991704497100604       0.20641827567287876     
   0.0000000000000000       0.20249993440656938       0.12855113636363635     
   0.0000000000000000       0.20312500000000000       0.79687500000000000     
   0.0000000000000000       0.20592650903014437       0.91616923083075008     
   0.0000000000000000       0.20708080019865122       0.60347138662486799     
   0.0000000000000000       0.20881174380662740       0.45118373807264039     
   0.0000000000000000       0.21148737705495707       0.74054376865132920     
   0.0000000000000000       0.21407117136637366       0.65921232651476624     
   0.0000000000000000       0.21875000000000000        0.0000000000000000     
   0.0000000000000000       0.21875000000000000        1.0000000000000000     
   0.0000000000000000       0.22621916310275669       0.26036437453168837     
   0.0000000000000000       0.22693109923009044       0.84817608833212677     
   0.0000000000000000       0.22934361368355521       0.53497275561808477     
   0.0000000000000000       0.23291828960141181        6.3296820644412860E-002
   0.0000000000000000       0.23549788065273725       0.32831789642150322     
   0.0000000000000000       0.24440883944936315       0.20614550385605404     
   0.0000000000000000       0.25000000000000000        0.0000000000000000     
   0.0000000000000000       0.25000000000000000        1.0000000000000000     
   0.0000000000000000       0.25308036536593070       0.69963757175059260     
   0.0000000000000000       0.25433452960858166       0.94422008612362063     
   0.0000000000000000       0.25438783372307811       0.39434016470855998     
   0.0000000000000000       0.25455601108832415       0.63866292690521120     
   0.0000000000000000       0.25542104790070941       0.12478291206971995     
[...]
CELL_DATA     20981
SCALARS pressure double 1
LOOKUP_TABLE default
  0.77342446294592504     
  0.69969076365390126     
  0.16217249385801313     
  0.53966605817809343     
  0.25196277903910069     
   3.9243928763476828E-002
   3.7995061443979926E-002
  0.65463681817223718     
  0.67584580243002701     
   7.4538000317234981E-002
  0.34672590350988519     
  0.90120313368199589     
  0.15882028888909558     
  0.96925480164692379     
  0.13460813243445566     
  0.32578004880374278     
  0.84256663981859692     
  0.95706855394696611     
  0.96878324181044961     
  0.79717065562223366     
  0.94288754778695405     
  0.33704121611744864     
  0.35240760272203780     
   4.9381816903573190E-002
   2.9823527389268713E-002
  0.32089514372007755     
  0.30111021995640602     
  0.37228616114987284     
  0.41087965558591721     
  0.10886420806075800     
   4.0110532973158627E-002
  0.95085863087992339     
  0.34336693750857827     
  0.81153873807622345     
  0.69112468977664787     
  0.86632497694311528     
  0.36931015887317137     
  0.91782814308037441     
  0.95155809181111062     
  0.97451318860636349     
  0.43322849244531619     
  0.60674841525586198     
  0.85937499999850797     
  0.87570173361861803     
  0.24253279648489773     
  0.88368149117824490     
  0.94427051783532256     
  0.41969442158677156     
  0.96203246228710981     
  0.22405931470533558     
  0.68236755591684484     
  0.34181760561715507     
  0.21737134516769890     
  0.32385298489879943     
  0.87453908154906757     
  0.85002641793143130     
  0.70060951069586941     
  0.21500921576262622     
  0.75119639793229498     
  0.55084437614212101     
  0.26297932151472925     
  0.66618397887087621     
  0.23864618625615378     
  0.95130599436080909     
  0.42179623180621634     
  0.93017785522108010     
  0.19464362371537219     
  0.12947016371413261     
  0.80348435014923525     
   8.0790475866534220E-002
   4.9777008652976205E-002
   4.5572423855183002E-002
  0.15121474552279338     
  0.44967821307880074     
  0.95687670837481698     
  0.56859171502617656     
  0.39662550681288578     
  0.76284145168749196     
  0.48689228842781962     
  0.41826396543137373     
  0.65864383531036208     
  0.81045715009590591     
   5.0598564992045639E-002
  0.26936920717543056     
  0.17336186065792400     
  0.49737612642284879     
  0.52249047364154577     
  0.17938842130248001     
  0.48693237452841315     
  0.40659095420787283     
  0.42784259272192054     
  0.95300175203460891     
  0.44407140843900061     
  0.82503357064029059     
   3.8680635525625312E-002
  0.10415479766127266     
  0.85645609643244847     
  0.62096528805174245     
  0.33267236750350243     
  0.80605232503824997     
  0.52555095286667330     
  0.96776702754182031     
  0.55122883831865654     
  0.40722504537625775     
   9.1185870851679854E-002
  0.89141793782854795     
  0.97015767308812062     
  0.41754118427424242     
  0.97013692443979993     
  0.19061805101722099     
  0.38016168338574580     
  0.70753331730872449     
   1.5624999999848245E-002
  0.51562499999831324     
  0.29687500000056960     
  0.90618919662931419     
  0.15253052286655275     
  0.74722805520528235     
  0.96379721052126655     
  0.27961937713325752     
  0.64783838060231069     
  0.76116917062097866     
  0.26156130051871551     
  0.74871859820683029     
  0.20298671737798052     
  0.68146613489784613     
  0.70351867812306346     
  0.65199747527111251     
  0.28154528611806151     
  0.41103208968512966     
  0.32010738789046267     
  0.24294418652546509     
  0.41680663013765790     
  0.80192313243171387     
  0.96509191142028150     
  0.71350481783318032     
  0.23250904111448659     
   4.6779831860055417E-002
  0.31989429810476766     
  0.73545792687933165     
  0.57556261626430161     
  0.19044203489948583     
  0.96654941963891550     
  0.20314840729311279     
  0.14491225819406459     
  0.13043529278982158     
  0.33927337566337551     
  0.90281900995888942     
  0.52220477891010864     
  0.45377200286223229     
  0.15502965397069882     
  0.97090690102733190     
  0.96540579532866289     
  0.26936333448609395     
  0.95195365833619716     
  0.76708760397370490     
  0.90824132880111885     
  0.25381417627137670     
  0.29881644287139902     
  0.88906651805046655     
  0.95139418701015532     
  0.12175187267677649     
  0.30606942586974367     
  0.53724973501243545     
  0.24786960656482665     
  0.98437499999880407     
  0.49352175400434151     
   4.8195226410893785E-002
  0.19963123988785722     
  0.96287661725120877     
  0.55977814126506709     
  0.42187499999936184     
  0.52025819797059147     
   3.5622845856066551E-002
  0.46281327528587740     
  0.46151188423754869     
  0.51215629538458596     
  0.93207134716340689     
   2.7944954192329768E-002
  0.35583280046355065     
  0.90627246874295420     
  0.87367541311099683     
  0.55465146732625392     
  0.77248675956544510     
  0.33630494171785869     
  0.85752336534150686     
  0.29687499999858746     
  0.58972762296945869     
  0.90091441732185729     
  0.52890953535904695     
  0.86449953609048880     
   5.8908153097624906E-002
   4.6513305477286562E-002
  0.37557931356003538     
  0.87837972179598922     
  0.27622261315859997     
  0.33130149013092597     
  0.40730259471040553     
  0.68665994616452108     
  0.72213034855335001     
  0.11016776659174904     
  0.67930639053162900     
  0.43130179410535452     
  0.83644952221406443     
  0.39055099076269095     
   4.3619150460674341E-002
   7.7802869359059224E-002
  0.23636137189645373     
  0.34958571802002325     
  0.35069724201452140     
   3.9245923754826259E-002
  0.74291351635002068     
  0.97306174462416617     
  0.61272703862853106     
  0.44980705558631512     
  0.23691387624867224     
  0.87012378386732869     
  0.58247355156031455     
  0.91404550676088903     
  0.16621885405807665     
  0.71926831689521631     
  0.26814296168064300     
  0.51211721947313837     
   1.5624999999825223E-002
  0.16268834296353205     
  0.67019046750954203     
   5.7010607788918650E-002
  0.42326183016201996     
   3.2576547359445138E-002
  0.94814128144340848     
  0.71586536804195344     
  0.52068352401904416     
  0.53773207582542470     
  0.62895194211410155     
  0.55697216060376709     
  0.10646422106712737     
  0.31285042015759429     
  0.63093218704011933     
  0.47845486432739709     
   9.1490240525078370E-002
  0.83256786399592264     
   3.2485131371716200E-002
  0.31605986265265440     
  0.80702413856828381     
  0.78725221627079467     
  0.42390691724122370     
  0.39440235412019309     
  0.44213101867071725     
   4.3147959529872146E-002
  0.33477701707641949     
  0.96344371579938592     
  0.90961532260161526     
   2.8579938754900162E-002
   3.1690543414578803E-002
  0.17187499999798317     
   2.6207031113689567E-002
  0.40838933343480338     
  0.33164469548296593     
  0.69772834347683987     
  0.33688273419527254     
  0.87005749284337475     
  0.20324714336847469     
  0.22571790960194815     
  0.25120369739740306     
   3.3566235275866982E-002
  0.10538446259752704     
  0.73544144895804031     
  0.15891410657656652     
  0.78566745166632324     
  0.95340389154024341     
  0.59342812594789562     
   2.5310306671101082E-002
  0.64450055303327280     
  0.76582051318990763     
  0.51272291848002138     
  0.78344542114945048     
  0.50787037148114100     
  0.71385137881868754     
  0.61320678404171558     
  0.33551406378152282     
  0.66120583004093991     
   3.2455128991885941E-002
   5.3790131563339873E-002
  0.29700895744702921     
  0.98107905477257973     
  0.94430897904646460     
  0.35200146160004009     
  0.36105908619452454     
   3.8642843236802615E-002
  0.68062112300327537     
  0.95453689916583639     
   2.5947598377362761E-002
  0.48453469892020595     
  0.93946355415606875     
  0.24292329217682510     
  0.42946202612127043     
  0.27698423520427085     
  0.33295939685496262     
  0.98437499999883238     
  0.64206010673244318     
  0.12531046662831100     
  0.16777396128425323     
  0.53218434394420633     
  0.93034956351658937     
  0.37992144845039166     
  0.40288027124938935     
  0.73688575644444965     
   5.4034348027128296E-002
  0.83392160216426925     
  0.97706635864313252     
  0.97805818053254445     
  0.14837955827320279     
   3.7512381209130294E-002
  0.48254353798039978     
  0.80530635147787288     
  0.46920961458514721     
  0.14041994659807955     
   1.5625000000049270E-002
  0.31242914343505163     
  0.22909385007174657     
  0.88905748735566914     
  0.88300081953089427     
   6.7628751106023954E-002
  0.42478576335888485     
   4.6436685604276759E-002
  0.64652508514759388     
  0.15244450155695136     
   5.0314817283138587E-002
  0.73954590278182253     
  0.76791058914175669     
  0.24565260291415592     
  0.60321684816069110     
  0.47903031626377546     
  0.97264472997193507     
  0.74765991352578887     
  0.68198391633101862     
   3.8163505645964997E-002
  0.20728903811088539     
  0.95512722178353771     
  0.43434202737695110     
  0.43486913419854922     
  0.35937499999893735     
  0.76878338876831420     
  0.54000886115069668     
  0.27685461031898445     
  0.11308815221907782     
  0.53003165541977426     
  0.44461495344938501     
  0.41170824972289738     
  0.67274050901873583     
  0.87876723750021546     
  0.88625115971635160     
  0.34664149145987849     
  0.25525035328068785     
  0.60097377445526279     
  0.19910541599572329     
  0.19031866769779807     
  0.98437499999884470     
  0.55159799703339485     
  0.60458592004445988     
  0.69044160285663292     
  0.22100476854847498     
  0.89415156706938292     
  0.27570309901701234     
  0.74111967382877719     
  0.56420675062115366     
  0.40265150351335510     
  0.77468845810265530     
  0.96954101071310317     
  0.66434483131213740     
  0.96984180551643828     
  0.36587152724135941     
  0.73242371744802226     
  0.54052003537917748     
  0.20869324655029262     
  0.88429425611665025     
  0.81015433078769716     
  0.71883684464539577     
  0.18153560493231280     
  0.70512017611812738     
  0.36038824036161871     
  0.83243055993143700     
  0.74024139161912317     
  0.86587686018125676     
  0.54016937199640802     
  0.23793131774513765     
  0.76808228440463377     
  0.73493198477623412     
  0.97302858738037812     
  0.95600937548216414     
  0.95156316734394630     
  0.18001471775044126     
  0.82815230995284472     
   5.5380720714464850E-002
  0.80680610799095820     
   4.5681542887130028E-002
  0.44814902242727556     
  0.76761227142995037     
  0.95196173115562466     
  0.37923187071283965     
  0.77364171090455014     
  0.98437499999880285     
  0.96055912042276093     
  0.61451047107780465     
   3.9882509570225357E-002
  0.12258873930595873     
  0.60157996717663198     
  0.77995615739897695     
  0.88770746988682181     
  0.71595051291859768     
  0.11915598120123837     
  0.31207095883065883     
  0.72467950343418763     
  0.28376246643488551     
  0.89354167877736423     
  0.72972762783086542     
   9.5677696206896035E-002
  0.40141402722453395     
   4.2659100891428978E-002
  0.71186479660298596     
  0.34849596393883597     
  0.39062499999862971     
  0.50489261850785594     
  0.12756383936592675     
  0.28958515557349684     
  0.39102474020009526     
  0.86364467094936537     
  0.53276386867538972     
   4.4286870054841006E-002
  0.94107981666232987     
   4.2350382567522979E-002
  0.15993089748668898     
  0.68891667847407567     
  0.16650521951870745     
  0.19649170964018547     
  0.90066878650121673     
   9.1004498285196883E-002
  0.50669293075960864     
  0.78722361748351444     
  0.86287706704765799     
   4.4804977287112996E-002
  0.56178055502261137     
  0.22020679106643912     
  0.31171746575762327     
  0.80790976690241789     
  0.12517167761397696     
  0.64312860164790564     
   4.3260615340285802E-002
  0.68110597345807278     
  0.75114888607167685     
  0.37049656233998374     
  0.18868443422471878     
  0.95132749991667442     
  0.41986415601623589     
  0.35956431669075589     
  0.90323116507824619     
  0.66445900262962421     
  0.87726860457793920     
   2.3571142059714226E-002
  0.75462345815598109     
  0.97445644194807712     
  0.16907891801215555     
  0.15559479166189699     
  0.60005832562816475     
  0.73238477487803888     
  0.46078439335367821     
  0.97095418599008865     
  0.23437499999752179     
  0.94804237606193786     
  0.32310777583663286     
  0.51974485502811341     
  0.70350266973833320     
   1.5624999999807208E-002
   4.1922435555490217E-002
  0.58267784140559742     
  0.95495882612922078     
  0.38107971950380581     
  0.40219141086559679     
  0.27482659493438277     
  0.63750350638681064     
  0.90463511928288765     
  0.61029325475110963     
  0.82483464449901034     
  0.42360057891780306     
   3.5219690573906740E-002
  0.22542172016133605     
  0.33044958011992226     
  0.64980447724331813     
  0.81874494460249247     
  0.62331451270338323     
  0.88752556121456272     
  0.41361699418319109     
  0.15562566338615508     
  0.61757788089948495     
   3.9305684812808175E-002
  0.87748035405839553     
  0.81827753801486547     
  0.14277621598573670     
  0.12778044338234743     
  0.60679160370544682     
  0.72716621294554584     
  0.72819934183782686     
  0.23658186985270477     
  0.95662621385269675     
  0.67374254660828770     
  0.87482873394549643     
  0.21455985862972862     
  0.18084171513611086     
  0.66713814931517312     
  0.56037378620312872     
  0.63351039522447516     
  0.69040888669065381     
  0.48555391644886697     
   2.2392535227276317E-002
  0.18881729740070866     
  0.93872958804918116     
   3.2869931338375104E-002
  0.96179522855735233     
  0.55297427747739147     
  0.32084800579929595     
  0.73090009282625923     
  0.12857767078794358     
  0.11749275510544832     
  0.51508123923688942     
  0.89297099903546728     
  0.94164899139960967     
  0.92753832831079186     
  0.19913724392508692     
   3.2494758799928504E-002
  0.96379771625502186     
  0.97383439964748097     
  0.73568712404897441     
   3.9066333440095947E-002
  0.45397428545303692     
  0.40668658362606463     
  0.52931678993888831     
  0.38204378676950435     
  0.56351305530093931     
  0.20492835430889864     
  0.47308563875384635     
  0.31543811251510701     
  0.90901635275789872     
  0.14980840647526314     
  0.82004791235397767     
   3.5056191478097291E-002
  0.66073057082568520     
  0.25078317655859583     
  0.69173460740491954     
  0.85415548388276508     
  0.77974907981393005     
  0.35605380941099879     
  0.88382185176894623     
   9.8206273344742495E-002
  0.31862415438191882     
  0.57311127503075188     
   2.5483511131381330E-002
  0.71134574609651502     
  0.38083770248322829     
  0.72090394243419098     
  0.79244551421643961     
  0.42765396651831744     
  0.51792752413630749     
  0.20137835027221543     
  0.22031344557484589     
   4.3780274697727453E-002
  0.34559710739894611     
  0.47971206495292590     
  0.93484491482910259     
  0.19229871634439924     
   2.5822748276531134E-002
   7.6357094554750718E-002
  0.76712377787398256     
  0.32068647521994953     
  0.24284480869474651     
  0.34197010351418761     
   8.9473631397758630E-002
  0.60737678941480611     
   2.2343250486737663E-002
  0.53963857547875038     
  0.47590912847270211     
   5.0172572823384762E-002
   2.5152466142634475E-002
  0.22279474066883728     
  0.67187499999868605     
  0.45406162838131497     
   3.0726832372206591E-002
  0.70712315727703368     
  0.90521636764518443     
  0.56065352951416736     
   3.1415801636077885E-002
   8.5191692587546566E-002
  0.42386732540876704     
  0.80320238345773765     
  0.65060797942729043     
   5.1748839075166253E-002
  0.83052005065763868     
  0.81764528733407005     
   4.9070665707482516E-002
   5.0325304178943868E-002
  0.22152128046459163     
  0.17334468826687879     
  0.29133906175733559     
  0.60878461912543302     
  0.67739312005320318     
  0.98046826257400288     
  0.78616331952626262     
  0.12694987723462312     
  0.57779734702267638     
  0.51215820661532208     
  0.12905646168719567     
  0.76579609549941885     
  0.10552989724546333     
  0.76172819849217066     
  0.45853420234432934     
  0.43433835952794320     
  0.46153212837833890     
  0.90978454565492350     
  0.90595986166050757     
  0.97839561705125400     
  0.96915251802284197     
  0.31797591144341708     
  0.86914902507291081     
  0.95225180822131228     
   9.5737888887223122E-002
  0.97039320631136639     
  0.80018483507189708     
  0.70763856924758761     
  0.45147601766153184     
   3.2074351175268322E-002
  0.66132967095529982     
  0.87833861495889842     
   3.6747525765922377E-002
  0.65771905634788541     
   5.1061576899268220E-002
   3.1539468209051319E-002
  0.60167120472852686     
  0.21386583687088767     
  0.88396805085939145     
  0.72697315774314208     
  0.43223825504465446     
  0.95231648099703081     
  0.22751021969911464     
  0.21710681123605916     
  0.29969478843092451     
  0.13407266703639861     
   3.9784696375605715E-002
  0.77299181661519678     
  0.46343184569743673     
  0.66372426208449009     
  0.14146385533423370     
  0.56942927857440595     
  0.13554114302234155     
  0.98122404760478954     
  0.95905267675907246     
  0.41984865820698802     
  0.95756436754803409     
  0.21984467002674538     
   6.2305007272351415E-002
  0.64515826077137717     
  0.75282636343346465     
  0.95610752970648638     
  0.43906997935579611     
  0.89973880791012040     
  0.57183083772746668     
  0.87212370553694940     
  0.97197805780922075     
  0.93542105375508211     
  0.46681609084277986     
  0.33528662020925132     
  0.45177958937508905     
  0.41168441875053052     
  0.47328934380606547     
  0.54892059300642826     
  0.29687499999846922     
  0.62674924051577630     
  0.96456413427584275     
  0.23898063608180797     
  0.85257602152253964     
  0.56154513283505980     
  0.26737388806068957     
  0.60916846679290459     
  0.96735597473845325     
  0.49923326148983849     
  0.96044888106932447     
  0.29991513926070984     
  0.86676173098666587     
  0.35769875581897831     
  0.68165940064415909     
  0.41016298328173867     
  0.46939847673573915     
  0.28244668279190932     
   4.3472995446703640E-002
  0.53822890173816362     
  0.96641867280022520     
   3.5771145515245524E-002
  0.79534219395930483     
   3.5594375581649643E-002
   3.0138812710598650E-002
  0.20493694772492191     
  0.55528619426953563     
  0.54374163817429089     
   3.8400614268785792E-002
   9.3174579539063537E-002
  0.16736635720093967     
  0.75045987889588017     
  0.44883541281500000     
  0.21122812159923712     
  0.30591396726043479     
  0.11733696630506117     
  0.76042321489729781     
   5.4077002326285394E-002
  0.19117610275623056     
  0.67198101115849851     
  0.27137983993122133     
  0.40565497712681392     
  0.48511074680451494     
  0.68224520565761471     
  0.22809615280658083     
  0.33455324529267305     
  0.14796170302290931     
  0.83618000647581825     
  0.62149294826785462     
  0.58720028913824862     
   4.5114065976913774E-002
  0.96204769178256655     
  0.81438739159999352     
  0.74486760655868101     
  0.94986983425258875     
  0.23521302795097659     
  0.62148079778497523     
   2.7237607727656796E-002
  0.83582698544047529     
  0.39832130258462906     
  0.29412747510028059     
  0.62059812888832255     
  0.94716085159424002     
  0.93031872766290136     
  0.55762457171296353     