# vtk DataFile Version 3.0
Unstructured Grid
ASCII
DATASET UNSTRUCTURED_GRID
POINTS      4550 double
   0.0000000000000000        0.0000000000000000        0.0000000000000000     
   0.0000000000000000        0.0000000000000000        3.1250000000000000E-002
   0.0000000000000000        0.0000000000000000        6.2500000000000000E-002
   0.0000000000000000        0.0000000000000000        9.3750000000000000E-002
   0.0000000000000000        0.0000000000000000       0.12500000000000000     
   0.0000000000000000        0.0000000000000000       0.15625000000000000     
   0.0000000000000000        0.0000000000000000       0.18750000000000000     
   0.0000000000000000        0.0000000000000000       0.21875000000000000     
   0.0000000000000000        0.0000000000000000       0.25000000000000000     
   0.0000000000000000        0.0000000000000000       0.28125000000000000     
   0.0000000000000000        0.0000000000000000       0.31250000000000000     
   0.0000000000000000        0.0000000000000000       0.34375000000000000     
   0.0000000000000000        0.0000000000000000       0.37500000000000000     
   0.0000000000000000        0.0000000000000000       0.40625000000000000     
   0.0000000000000000        0.0000000000000000       0.43750000000000000     
   0.0000000000000000        0.0000000000000000       0.46875000000000000     
   0.0000000000000000        0.0000000000000000       0.50000000000000000     
   0.0000000000000000        0.0000000000000000       0.53125000000000000     
   0.0000000000000000        0.0000000000000000       0.56250000000000000     
   0.0000000000000000        0.0000000000000000       0.59375000000000000     
   0.0000000000000000        0.0000000000000000       0.62500000000000000     
   0.0000000000000000        0.0000000000000000       0.65625000000000000     
   0.0000000000000000        0.0000000000000000       0.68750000000000000     
   0.0000000000000000        0.0000000000000000       0.71875000000000000     
   0.0000000000000000        0.0000000000000000       0.75000000000000000     
   0.0000000000000000        0.0000000000000000       0.78125000000000000     
   0.0000000000000000        0.0000000000000000       0.81250000000000000     
   0.0000000000000000        0.0000000000000000       0.84375000000000000     
   0.0000000000000000        0.0000000000000000       0.87500000000000000     
   0.0000000000000000        0.0000000000000000       0.90625000000000000     
   0.0000000000000000        0.0000000000000000       0.93750000000000000     
   0.0000000000000000        0.0000000000000000       0.96875000000000000     
   0.0000000000000000        0.0000000000000000        1.0000000000000000     
   0.0000000000000000        3.1250000000000000E-002   0.0000000000000000     
   0.0000000000000000        3.1250000000000000E-002   1.0000000000000000     
   0.0000000000000000        4.2405763908650258E-002  0.66130451259029932     
   0.0000000000000000        4.3217879046206449E-002  0.14760011926069846     
   0.0000000000000000        4.6024266659168159E-002  0.44206785664549769     
   0.0000000000000000        4.6024266659168159E-002  0.52668214335450225     
   0.0000000000000000        5.0942866059175335E-002  0.10420737699075047     
   0.0000000000000000        5.2217891062431979E-002   5.2217891062431979E-002
   0.0000000000000000        5.2761163692563604E-002  0.38171595438393841     
   0.0000000000000000        5.5068963296708517E-002  0.59134852187332609     
   0.0000000000000000        5.6120114733671470E-002  0.75604724093930309     
   0.0000000000000000        5.6324478455296215E-002  0.24577786591727294     
   0.0000000000000000        5.7363532779538949E-002  0.87371196899699510     
   0.0000000000000000        5.7470675736370332E-002  0.18930699270579771     
   0.0000000000000000        5.8263363642804059E-002  0.81429895566577748     
   0.0000000000000000        6.0887870516095753E-002  0.69980397551580908     
   0.0000000000000000        6.2500000000000000E-002   0.0000000000000000     
   0.0000000000000000        6.2500000000000000E-002   1.0000000000000000     
   0.0000000000000000        6.4711269014538775E-002  0.48437500000000000     
   0.0000000000000000        6.9225209415320288E-002  0.33114145848017668     
   0.0000000000000000        7.0413861272891454E-002  0.92958613872710860     
   0.0000000000000000        7.9770917049368548E-002  0.64062500000000000     
   0.0000000000000000        8.3926071099233085E-002  0.28526314383622647     
   0.0000000000000000        8.7633724434323254E-002  0.42187500000000000     
   0.0000000000000000        8.7633724434323254E-002  0.54687500000000000     
   0.0000000000000000        8.8068181818181823E-002  0.14062500000000000     
   0.0000000000000000        9.3750000000000000E-002   0.0000000000000000     
   0.0000000000000000        9.3750000000000000E-002   1.0000000000000000     
   0.0000000000000000       0.10119805731737391       0.89303091974927329     
   0.0000000000000000       0.10210219776924923        7.0764746741824577E-002
   0.0000000000000000       0.10635988421955403       0.21957230430375799     
   0.0000000000000000       0.10740857139383649       0.84564547603995810     
   0.0000000000000000       0.10786461042496739       0.46474837701534855     
   0.0000000000000000       0.10968401176898811       0.73824428233438488     
   0.0000000000000000       0.10969220020645358       0.95550186482507926     
   0.0000000000000000       0.11544264275928678       0.79209098776725284     
   0.0000000000000000       0.11808901360852578       0.59663401005457384     
   0.0000000000000000       0.12041430467853043       0.67800854775312602     
   0.0000000000000000       0.12335307882294175       0.17407035117359601     
   0.0000000000000000       0.12500000000000000        0.0000000000000000     
   0.0000000000000000       0.12500000000000000        1.0000000000000000     
   0.0000000000000000       0.13002446100559079       0.36656116971438985     
   0.0000000000000000       0.13068181818181818       0.29687500000000000     
   0.0000000000000000       0.13145794935938171       0.52792875194736344     
   0.0000000000000000       0.13152145848091723       0.25413323966508028     
   0.0000000000000000       0.14029998073959937       0.12855113636363635     
   0.0000000000000000       0.14062500000000000       0.92003956561172884     
   0.0000000000000000       0.14354289369273243        4.6375564186635417E-002
   0.0000000000000000       0.14789203175728108       0.42415466219925380     
   0.0000000000000000       0.15101795183539601       0.48437500000000000     
   0.0000000000000000       0.15625000000000000        0.0000000000000000     
   0.0000000000000000       0.15625000000000000        1.0000000000000000     
   0.0000000000000000       0.15812483216952217       0.81572518579617204     
   0.0000000000000000       0.16016925006360749       0.76155969044955663     
   0.0000000000000000       0.16105769230769232       0.64062500000000000     
   0.0000000000000000       0.16498033923188599       0.56192540447066308     
   0.0000000000000000       0.16681364204580570       0.86373403073390376     
   0.0000000000000000       0.16773736985982415       0.70646802951986931     
   0.0000000000000000       0.17187500000000000        8.5227272727272721E-002
   0.0000000000000000       0.17187500000000000       0.17187500000000000     
   0.0000000000000000       0.17230065023518384       0.24130278401345417     
   0.0000000000000000       0.17524993035964637       0.33214160114056268     
   0.0000000000000000       0.17536724190152050       0.95339263300749488     
   0.0000000000000000       0.18456495164560949       0.51836722168265548     
   0.0000000000000000       0.18672094257804892       0.28630188376875909     
   0.0000000000000000       0.18750000000000000        0.0000000000000000     
   0.0000000000000000       0.18750000000000000        1.0000000000000000     
   0.0000000000000000       0.19182611979586967        4.4839049992879139E-002
   0.0000000000000000       0.19736660067068895       0.38449523208871811     
   0.0000000000000000       0.19991704497100604       0.20641827567287876     
   0.0000000000000000       0.20249993440656938       0.12855113636363635     
   0.0000000000000000       0.20312500000000000       0.79687500000000000     
   0.0000000000000000       0.20592650903014437       0.91616923083075008     
   0.0000000000000000       0.20708080019865122       0.60347138662486799     
   0.0000000000000000       0.20881174380662740       0.45118373807264039     
   0.0000000000000000       0.21148737705495707       0.74054376865132920     
   0.0000000000000000       0.21407117136637366       0.65921232651476624     
   0.0000000000000000       0.21875000000000000        0.0000000000000000     
   0.0000000000000000       0.21875000000000000        1.0000000000000000     
   0.0000000000000000       0.22621916310275669       0.26036437453168837     
   0.0000000000000000       0.22693109923009044       0.84817608833212677     
   0.0000000000000000       0.22934361368355521       0.53497275561808477     
   0.0000000000000000       0.23291828960141181        6.3296820644412860E-002
   0.0000000000000000       0.23549788065273725       0.32831789642150322     
   0.0000000000000000       0.24440883944936315       0.20614550385605404     
   0.0000000000000000       0.25000000000000000        0.0000000000000000     
   0.0000000000000000       0.25000000000000000        1.0000000000000000     
   0.0000000000000000       0.25308036536593070       0.69963757175059260     
   0.0000000000000000       0.25433452960858166       0.94422008612362063     
   0.0000000000000000       0.25438783372307811       0.39434016470855998     
   0.0000000000000000       0.25455601108832415       0.63866292690521120     
   0.0000000000000000       0.25542104790070941       0.12478291206971995     
[...]
CELL_DATA     20981
SCALARS pressure double 1
LOOKUP_TABLE default
  0.77365646082785733     
  0.70496544046562071     
  0.16779665385617634     
  0.53755880232768927     
  0.24824585974838712     
   3.8098863535803419E-002
   4.4184900863685872E-002
  0.65733489624362529     
  0.67767065272763616     
   7.6293387060592216E-002
  0.33942483932697010     
  0.90249347499040233     
  0.15998742978042621     
  0.97508696411121443     
  0.13331319956795815     
  0.33116270379354501     
  0.84389687857047058     
  0.95244419887649057     
  0.96626268036022089     
  0.79236413757661150     
  0.94574024114856148     
  0.34007667840885014     
  0.34860250474876636     
   4.2424056355524986E-002
   2.6282673315679274E-002
  0.31990143799172477     
  0.30259629662845722     
  0.37917452702276355     
  0.40856905476713701     
  0.10901182012333333     
   3.6128199333464679E-002
  0.95313368056024650     
  0.34364012799961896     
  0.81116878873745912     
  0.69124069564203805     
  0.86458045116879056     
  0.37176262074504346     
  0.91870995513189602     
  0.94912940820398672     
  0.97627560599645336     
  0.43486270258590404     
  0.60823762352977717     
  0.86099313053784832     
  0.87453072703334145     
  0.23326444526785775     
  0.88426313393719536     
  0.95005764304585805     
  0.41855226349590363     
  0.95692554207063174     
  0.21866656259211997     
  0.69284663870421392     
  0.34967140394768215     
  0.21526513431107661     
  0.32455106005564122     
  0.87739791393103661     
  0.85268539536915977     
  0.70181973871631242     
  0.21435216352780612     
  0.74849500097625288     
  0.55157523674312170     
  0.26308511848708943     
  0.66758504677167374     
  0.23481361328871381     
  0.95102969827533046     
  0.42477152490768139     
  0.93133309299955425     
  0.19585297052287365     
  0.12367444660703962     
  0.80035294104009869     
   7.3425049450285329E-002
   5.1963351057228963E-002
   4.5354037989349602E-002
  0.15423376820234849     
  0.44723754701806429     
  0.95798853938434847     
  0.57125967534539135     
  0.40192515642648291     
  0.76467151461691796     
  0.48443597788121329     
  0.42498632285442467     
  0.66349305391504676     
  0.80782300654167594     
   4.5623481474442146E-002
  0.27975890509117740     
  0.17505092821445023     
  0.49077266737156883     
  0.52658692228687287     
  0.18212678617441480     
  0.48502271627316740     
  0.40345160360097476     
  0.43207701863927656     
  0.95024302815662631     
  0.44461963881832894     
  0.82156317179172034     
   3.7867626839569499E-002
  0.10160540220589397     
  0.86184210085881097     
  0.61828101425332704     
  0.33455289506689467     
  0.80815136829650092     
  0.53569807204934805     
  0.96193419851027828     
  0.55438913621836694     
  0.41814404956588630     
   8.4519471891945863E-002
  0.88811700789121439     
  0.96928413865936691     
  0.41874615456615688     
  0.97423405118239259     
  0.18934825438857525     
  0.37850501203877746     
  0.70753841448361154     
   1.3915427609978881E-002
  0.51302953516078464     
  0.30750848522116569     
  0.91026420478219783     
  0.15428063649403795     
  0.74704544140583440     
  0.95895806439332609     
  0.28216053105497790     
  0.65020250805039570     
  0.75702253010427367     
  0.26107982872531182     
  0.75019313879250815     
  0.20303280727749429     
  0.68391530788927590     
  0.70189128171111359     
  0.65169438780100941     
  0.27512418391817356     
  0.41680001702685882     
  0.32598763927993946     
  0.24264249588522835     
  0.41758488369090963     
  0.79616718258478902     
  0.96832094221072551     
  0.71521427484911893     
  0.23342513219941194     
   4.9197109457057749E-002
  0.32165707789616277     
  0.73870649230236207     
  0.57937956902776333     
  0.19564267310671518     
  0.96584059014404522     
  0.20187827064714411     
  0.14728672510947774     
  0.12699890950201795     
  0.34225802766226371     
  0.90547828400348351     
  0.51684687470610635     
  0.45200952235446518     
  0.16103275080536039     
  0.97244056767009091     
  0.96556503148917894     
  0.26447815676253172     
  0.95210424676108663     
  0.76551198456774738     
  0.91073358494423828     
  0.25571208823037511     
  0.30263367433093263     
  0.88535416960401403     
  0.95376154701726901     
  0.11984862377164528     
  0.30304074327059138     
  0.54425743561445550     
  0.24934050001973956     
  0.99012032634072233     
  0.48987055010550185     
   4.5982063689739706E-002
  0.20008456351827472     
  0.96858830824566200     
  0.56079814751829327     
  0.43550971484496298     
  0.52458620767205022     
   4.0088144497449248E-002
  0.46343337835187681     
  0.46014805014493776     
  0.51329256160005554     
  0.93415917554896355     
   2.7301082861525845E-002
  0.35734722903640942     
  0.90337161144022182     
  0.87381298375112626     
  0.56024149972864368     
  0.77201194645479998     
  0.33532321359844125     
  0.85992943429974378     
  0.30635950937382783     
  0.59190902066724072     
  0.89888471984884621     
  0.53253152541649607     
  0.86546265353982554     
   6.2279852843983921E-002
   4.4316491695380947E-002
  0.36900212891253842     
  0.87569089263918776     
  0.27998232790653182     
  0.33570740671346749     
  0.41027212844656613     
  0.69130469031348807     
  0.72212382524293739     
  0.10648806777381679     
  0.67805770688311728     
  0.43655715734933764     
  0.83897824365212326     
  0.39372540588269100     
   4.1706750388773424E-002
   7.4047577359716121E-002
  0.23562262321422159     
  0.35540531381097795     
  0.34495218873710665     
   3.3883831133562289E-002
  0.75144682626950321     
  0.97853176717707369     
  0.61449718711107504     
  0.45570297661042564     
  0.23168677185380199     
  0.86700997221859544     
  0.58569353606267438     
  0.91780271645707867     
  0.16760645199974569     
  0.73376841409556204     
  0.26500997625482442     
  0.51510464887723262     
   1.1463699235570142E-002
  0.16478166780018155     
  0.66737286978462396     
   5.6310616232284290E-002
  0.42351698779697322     
   3.3020127486170829E-002
  0.94463971939956581     
  0.71336303283481584     
  0.52352111830218317     
  0.53732962954438845     
  0.63238481485218601     
  0.56101067068791011     
  0.10474538690999538     
  0.31332459446884126     
  0.62851437182661574     
  0.47777127940220754     
   9.2019006790810737E-002
  0.82163309113355587     
   3.5214974097655900E-002
  0.31655167562542275     
  0.80133617565366766     
  0.78753719545984779     
  0.42428715400671274     
  0.39816628940407200     
  0.44632548849579090     
   3.8712725717765725E-002
  0.33323943256731309     
  0.96615760016966279     
  0.90873667810351944     
   2.6293948694611928E-002
   3.2478231688207612E-002
  0.17674207664985822     
   2.1876123196783080E-002
  0.41388632348174975     
  0.32974156563248841     
  0.69289115279973046     
  0.33187972760944751     
  0.87016606573633271     
  0.19918552943915721     
  0.23018132272976247     
  0.25160535510708587     
   2.6641213763591475E-002
  0.10501934804538123     
  0.73791786940394222     
  0.15377472410587778     
  0.79111429601602523     
  0.95541319585323725     
  0.60736938555047360     
   2.5517287062354579E-002
  0.64307036040386667     
  0.77314240592149697     
  0.51132401939645822     
  0.78492314773824179     
  0.51239975104887769     
  0.71141365968037984     
  0.62399918525840403     
  0.33588301168572648     
  0.66132163737992422     
   2.8268614588562460E-002
   5.0845010622884518E-002
  0.30289948461364696     
  0.98317507803137427     
  0.95058392787133350     
  0.34672611604031689     
  0.36288039012823603     
   3.6761818906781742E-002
  0.67932979266674487     
  0.95845252434160266     
   2.2894674633840532E-002
  0.47928217532004869     
  0.93703353858237559     
  0.23892880771777844     
  0.43116689763831562     
  0.27657151305738598     
  0.33362875939792130     
  0.98329366052997691     
  0.63895071653511160     
  0.12543567647388171     
  0.16327648079576568     
  0.53111089548166557     
  0.92539112109012422     
  0.38010713997330864     
  0.40736600959993613     
  0.74332567351563417     
   4.8587460179931631E-002
  0.83316607361159301     
  0.98012596844665489     
  0.97765111801037885     
  0.14345778038678542     
   3.7173121865645628E-002
  0.48800998099240117     
  0.80857133420235061     
  0.47056637723418970     
  0.13546011533817406     
   1.8547942489864706E-002
  0.30232869861830647     
  0.22711470495141878     
  0.88930136816714156     
  0.88251379814956143     
   6.9357408298357653E-002
  0.42878606161856836     
   4.5550635012819050E-002
  0.64846100424944297     
  0.13957954524966154     
   5.4958063665271568E-002
  0.74036858440841213     
  0.76549598138339547     
  0.24467503639870669     
  0.60563255327241050     
  0.47729922205581538     
  0.97314576310846601     
  0.74381300584468613     
  0.68514768502277312     
   3.7930492510836356E-002
  0.20216423997311589     
  0.95370943074820913     
  0.43523343348548527     
  0.43907903079952887     
  0.36261644148126609     
  0.76091993906346533     
  0.54184280717228095     
  0.27550890504798003     
  0.12006583968738443     
  0.53215129106051007     
  0.44681515469165156     
  0.41413507079873468     
  0.67503293415559440     
  0.87504412267029719     
  0.88611607291219940     
  0.34609312822119404     
  0.25539265124905514     
  0.59532387705300316     
  0.20373246885725901     
  0.18490976732032938     
  0.98356463799443850     
  0.55342819977970115     
  0.61244964023988002     
  0.69144107834194435     
  0.21984616542412616     
  0.89621011146415241     
  0.28345085350311039     
  0.73714151493181301     
  0.56721358827015966     
  0.40526620260543222     
  0.77021999311757627     
  0.96855978378821306     
  0.65965030036076611     
  0.97217215147623182     
  0.36923432141766505     
  0.73498751078011726     
  0.54144785559357334     
  0.20760064263735556     
  0.88263512740790151     
  0.80639391762823431     
  0.71961435810865149     
  0.18275752587653710     
  0.70516894887525550     
  0.35719977561924532     
  0.83093792631943941     
  0.74105008028758490     
  0.87172843319459037     
  0.54191228197152486     
  0.23463120392960349     
  0.76492616431841898     
  0.73647911177387471     
  0.97552815262102410     
  0.95515409979878374     
  0.95332829553038245     
  0.17938405876118690     
  0.82122404870464150     
   5.4768424287261572E-002
  0.80444545105285736     
   4.6801511841380365E-002
  0.44826480931319185     
  0.77991264257136006     
  0.94805859672279347     
  0.37670677319179041     
  0.78041057041519557     
  0.98173921744151993     
  0.96044876461105544     
  0.61819543207962757     
   3.7472403206469128E-002
  0.12070315403887986     
  0.60758257847920993     
  0.77322075817389602     
  0.89167850635832580     
  0.71787594879309224     
  0.11748170915723348     
  0.31907930151684100     
  0.72278276057714241     
  0.28562995849392819     
  0.89705823267826401     
  0.73771462997297077     
   9.4549940739111965E-002
  0.39905777603299930     
   4.1219058019640417E-002
  0.70582147447453414     
  0.35441667576590224     
  0.38675524750149398     
  0.50692479956592740     
  0.12651319034477232     
  0.29002923084765109     
  0.39105681248095531     
  0.87395453606439932     
  0.53137842693143489     
   4.4009244663377738E-002
  0.93905430082894570     
   4.0258495958277483E-002
  0.15662027865257191     
  0.68685085707067628     
  0.16478262768636623     
  0.19401959955992984     
  0.90278009593410069     
   8.4284623429922587E-002
  0.50894309883563871     
  0.78790986892152604     
  0.86760657001794084     
   4.1575044466106846E-002
  0.55763652095255156     
  0.22356718726945729     
  0.31127295146727879     
  0.80910159385994784     
  0.12378460546497201     
  0.64485265475066234     
   3.8243469773559115E-002
  0.67906171656501013     
  0.75652372523449096     
  0.37193574392333428     
  0.18568845476252371     
  0.95343948681183577     
  0.41631243993729339     
  0.36151093505795961     
  0.90733460536295785     
  0.66549283656787284     
  0.88219583729164719     
   2.6178116149837779E-002
  0.76156319123180594     
  0.97625234245083536     
  0.16393774353264587     
  0.15706092652654302     
  0.60164556629095400     
  0.73092784676875966     
  0.46273173208571411     
  0.97539953645455735     
  0.24374959887261716     
  0.94896609688977496     
  0.32609678717453389     
  0.51785066577428973     
  0.70656059440349883     
   1.4648458341808350E-002
   3.7014132254668479E-002
  0.58424492180029253     
  0.95421538164754405     
  0.38304664674230188     
  0.41139022705520445     
  0.27774944285969166     
  0.64276047798062641     
  0.90403142017886395     
  0.61176637245811627     
  0.82249754232186933     
  0.42199510589917771     
   4.1871696812360457E-002
  0.23003095166393406     
  0.32688319014373207     
  0.64753305181286147     
  0.81699312922076084     
  0.62819205400600775     
  0.88502565253970533     
  0.40903308165238106     
  0.16072216462967387     
  0.62183502479862895     
   3.7206836636289591E-002
  0.87824973573976317     
  0.81717981816065322     
  0.13989280400193174     
  0.12627209283897725     
  0.60749967312006570     
  0.72837950968464071     
  0.72908185488919430     
  0.23574097610101191     
  0.95064757272775502     
  0.67311025789776946     
  0.87265971261498843     
  0.21049602053452074     
  0.17620113608420324     
  0.66445983693820021     
  0.56337110108533595     
  0.63825142411797064     
  0.68956606686010791     
  0.48554086783002004     
   2.1857260452452537E-002
  0.18578531846643390     
  0.93582522524048484     
   3.2890958149130074E-002
  0.96489783860724876     
  0.55949223604770038     
  0.31584582690712770     
  0.72806847486139958     
  0.13425542142791158     
  0.11065456974425050     
  0.51741821844904090     
  0.89259055037924684     
  0.94401474276904118     
  0.93195168977926413     
  0.20101765039808125     
   3.0499047759825738E-002
  0.96140809331069121     
  0.97284870720064676     
  0.73066479929174755     
   3.4933948085058002E-002
  0.46014816701799133     
  0.41194193702898796     
  0.53136118779895070     
  0.38937792356236672     
  0.56194553432917871     
  0.21417093447058613     
  0.47252776073551739     
  0.31876484073890404     
  0.91315521411561451     
  0.15068210065867146     
  0.82087286698166595     
   3.3204874773829725E-002
  0.66828697263486891     
  0.25222438791992191     
  0.68951891323453729     
  0.85159478394745070     
  0.77310199936670254     
  0.35878837990621265     
  0.87988597294463133     
   9.3028143041274075E-002
  0.31925085190724911     
  0.57827926276677633     
   2.0967356486635415E-002
  0.70368607844944964     
  0.38214669772025966     
  0.72112522391325529     
  0.79876255912317518     
  0.41979392172211633     
  0.51903334382561050     
  0.20430468162402313     
  0.22087549837521742     
   4.7163428017608984E-002
  0.34550038534257910     
  0.48138778584745945     
  0.93534204967507995     
  0.19124389829861069     
   2.7701611642942194E-002
   7.6075804026400906E-002
  0.76837881633970673     
  0.31686492629126661     
  0.23963623895766983     
  0.34153990617809021     
   8.4440905318943868E-002
  0.59996255262442455     
   1.6682839823774432E-002
  0.54769063073164370     
  0.47883114724698750     
   5.1791143669421308E-002
   1.9890602928940154E-002
  0.22703411831684617     
  0.67434917346100154     
  0.45437088613736498     
   2.7540346203300578E-002
  0.71083280631350731     
  0.90798940758652169     
  0.56629133644107243     
   3.3380639034508268E-002
   8.3259369257487337E-002
  0.42774209450863476     
  0.80259549928917162     
  0.65548200601838680     
   5.2288558722903368E-002
  0.83626780975511694     
  0.81571793880962706     
   4.8361738357158596E-002
   5.6594776471810354E-002
  0.21792259379862411     
  0.16776373501516187     
  0.29519276342964546     
  0.61149844940942466     
  0.68134002002313920     
  0.98222492120055016     
  0.79314541373164726     
  0.13079769386785622     
  0.57562130647370990     
  0.51053226181814226     
  0.12416273231370266     
  0.76540142713691672     
  0.10278236419471129     
  0.76463409434822260     
  0.45491395853931715     
  0.43722228371999727     
  0.46826338593799893     
  0.90738484668463570     
  0.90532146784421863     
  0.98195437360585813     
  0.96991793046312746     
  0.31902707245660150     
  0.87021466294173155     
  0.95451472157641948     
   8.4428343137820813E-002
  0.97019129957273176     
  0.79759035858267413     
  0.71711961807106950     
  0.45497383976383315     
   2.7425151763207600E-002
  0.65738568361615091     
  0.87645705765725290     
   3.4553654625334218E-002
  0.66012123229584363     
   4.5666902064300678E-002
   3.3236531892965909E-002
  0.59945437087413944     
  0.20910891990774461     
  0.88539522086290079     
  0.73313742273065008     
  0.42773352768464279     
  0.95406789620638077     
  0.23166122418382812     
  0.21213951037962056     
  0.30602578960559534     
  0.13160953266013742     
   3.8328952964066895E-002
  0.76546503326996829     
  0.45740987888029822     
  0.66382081645966418     
  0.13978319279366541     
  0.57268699990683425     
  0.13596261450489119     
  0.98580802523109057     
  0.95489421333433733     
  0.41926659571805480     
  0.96064248172691979     
  0.22537533516402811     
   5.9944280267143442E-002
  0.65143871174450418     
  0.74812439177107659     
  0.95409155468305307     
  0.44112515252582785     
  0.90095523098069419     
  0.57831129173709261     
  0.87289855132354255     
  0.97391050637871468     
  0.93302443772476940     
  0.46453253039874753     
  0.33859569747067220     
  0.44813696087206345     
  0.41699860583306403     
  0.48146868124567693     
  0.54647394227421831     
  0.29625475846175403     
  0.62817952282300249     
  0.96738114078379778     
  0.23906546227121250     
  0.85592217749759325     
  0.55507845410043011     
  0.25549805918412843     
  0.60738625109573463     
  0.97454954186216136     
  0.49544332921287698     
  0.96200204253654842     
  0.30954988281524903     
  0.87311708321793968     
  0.36160581227602162     
  0.67786816607799150     
  0.42211975310645461     
  0.47365423435091697     
  0.28695184402994972     
   3.8813373843808549E-002
  0.53927428390301901     
  0.97251045166387584     
   3.3640022861828295E-002
  0.79252502978104489     
   2.9757629554431592E-002
   2.2626042448184790E-002
  0.20693956824579504     
  0.55582556198344824     
  0.54213356886537478     
   3.6625586644840738E-002
   9.7853161626872312E-002
  0.16631601585657654     
  0.74966697192159260     
  0.45278095543057595     
  0.21030617129128426     
  0.30609948932256925     
  0.11484460984416417     
  0.75795609782270490     
   5.0552674319090642E-002
  0.19158348658219396     
  0.67289244548787475     
  0.26741451499534802     
  0.40648376644925965     
  0.48308576623974675     
  0.68341692828290557     
  0.22683929303175954     
  0.33956543914242138     
  0.14837976952653856     
  0.83781247288326133     
  0.62036240136181997     
  0.59266560192368500     
   4.2511827019028191E-002
  0.96205347481968273     
  0.81207091201269255     
  0.74544194843736178     
  0.95153709658304042     
  0.23510953542197832     
  0.62608587813750427     
   1.8777634491589822E-002
  0.83082195279612214     
  0.40309658274333254     
  0.29999614185134732     
  0.62860597524839279     
  0.95022112451714291     
  0.93102530595634692     
  0.55602635130068367     