# vtk DataFile Version 3.0
Unstructured Grid
ASCII
DATASET UNSTRUCTURED_GRID
POINTS        13 double
   0.0000000000000000        1.0000000000000000        1.6180000000000001     
   0.0000000000000000       -1.0000000000000000        1.6180000000000001     
   0.0000000000000000        1.0000000000000000       -1.6180000000000001     
   0.0000000000000000       -1.0000000000000000       -1.6180000000000001     
   1.0000000000000000        1.6180000000000001        0.0000000000000000     
  -1.0000000000000000        1.6180000000000001        0.0000000000000000     
   1.0000000000000000       -1.6180000000000001        0.0000000000000000     
  -1.0000000000000000       -1.6180000000000001        0.0000000000000000     
   1.6180000000000001        0.0000000000000000        1.0000000000000000     
   1.6180000000000001        0.0000000000000000       -1.0000000000000000     
  -1.6180000000000001        0.0000000000000000        1.0000000000000000     
  -1.6180000000000001        0.0000000000000000       -1.0000000000000000     
   0.0000000000000000        0.0000000000000000        0.0000000000000000     
CELLS        20       100
           4           6           8           9          12
           4           3           6           9          12
           4           7           3          11          12
           4           3           2          11          12
           4           6           3           7          12
           4           1           0           8          12
           4           6           1           8          12
           4           2           3           9          12
           4           0           4           8          12
           4           8           4           9          12
           4           1           6           7          12
           4          10           7          11          12
           4           2           5          11          12
           4           4           2           9          12
           4           1           7          10          12
           4           0           1          10          12
           4           5          10          11          12
           4           5           0          10          12
           4           2           4           5          12
           4           4           0           5          12
CELL_TYPES        20
10
10
10
10
10
10
10
10
10
10
10
10
10
10
10
10
10
10
10
10
CELL_DATA        20
SCALARS pressure double 1
LOOKUP_TABLE default
   1.0000000000000004     
  0.50664539964073563     
  0.34605397292393203     
   9.2810983893675258E-002
  0.72134663528038678     
   2.0457776498148377     
   1.7101849898848582     
   2.6270132638555044E-003
   1.8265367467438967     
  0.88325222830035743     
   1.4677998671292707     
  0.76839219874480147     
  0.34758468467827930     
  0.39662698654474937     
   1.6535583808380232     
   2.0265414923946423     
  0.80272795322806267     
   1.6687270270638865     
  0.58602302357458291     
   1.5450050978543992     
VECTORS velocity double
   4.8949472727049616E-002  0.12815573927566745       -1.0848285822281210     
  -3.0869721719254672E-002  -7.1723393651972694E-002 -0.95914632806728184     
  -3.9135783893363751E-002   8.2743566662869278E-002  -1.0436077827695056     
   9.0648403091677709E-002   3.8721086417209727E-002  -1.0346234320832242     
  -9.8868051510862170E-002   4.9838819063227485E-003  -1.0130484157353246     
  -2.7203034845792728E-002  -4.9712882507831346E-002 -0.98960971845815737     
  0.12253915196976400        5.5401716841685378E-002  -1.0671374351280787     
   9.0648403091677973E-002  -2.9156230993908794E-002 -0.96537656791677584     
   1.8012818418469578E-002  -5.2247542030140370E-002 -0.96576527638833176     
  -4.8949472727046618E-002  0.12815573927566720       -1.0760619344957683     
  0.13919925340185998       -4.9838819063220824E-003  -1.0130484157353243     
   2.6947958636745845E-002  -7.0553069699442722E-002 -0.94420836102310213     
   7.9458584018220202E-002   3.8414834212099180E-002  -1.0410437498061209     
 -0.13391561659498069        9.9371802605404597E-002  -1.0345438139895762     
   9.5203739296104151E-002  -8.8423601308500299E-002 -0.99321986201239776     
  -2.7203034845792146E-002  -3.1054283887316070E-002  -1.0103902815418422     
  -2.6947958636745956E-002  -7.0553069699442805E-002  -1.1484317755575468     
 -0.15975990734696291      -0.10754080624328302       -1.0522191011036783     
  -4.7307080577663238E-002   8.3324853777424712E-002 -0.78184528574130507     
  -7.1448556722341128E-002  -8.3324853777423630E-002 -0.78184528574130541     
